
                                 *****************
                                 * O   R   C   A *
                                 *****************

           --- An Ab Initio, DFT and Semiempirical electronic structure package ---

                  #######################################################
                  #                        -***-                        #
                  #          Department of theory and spectroscopy      #
                  #               Directorship: Frank Neese             #
                  #        Max Planck Institute fuer Kohlenforschung    #
                  #                Kaiser Wilhelm Platz 1               #
                  #                 D-45470 Muelheim/Ruhr               #
                  #                      Germany                        #
                  #                                                     #
                  #                  All rights reserved                #
                  #                        -***-                        #
                  #######################################################


                         Program Version 4.2.1 -  RELEASE  -


 With contributions from (in alphabetic order):
   Daniel Aravena         : Magnetic Suceptibility
   Michael Atanasov       : Ab Initio Ligand Field Theory (pilot matlab implementation)
   Alexander A. Auer      : GIAO ZORA, VPT2
   Ute Becker             : Parallelization
   Giovanni Bistoni       : ED, misc. LED, open-shell LED, HFLD
   Martin Brehm           : Molecular dynamics
   Dmytro Bykov           : SCF Hessian
   Vijay G. Chilkuri      : MRCI spin determinant printing, contributions to CSF-ICE
   Dipayan Datta          : RHF DLPNO-CCSD density
   Achintya Kumar Dutta   : EOM-CC, STEOM-CC
   Dmitry Ganyushin       : Spin-Orbit,Spin-Spin,Magnetic field MRCI
   Miquel Garcia          : C-PCM Hessian, Gaussian charge scheme
   Yang Guo               : DLPNO-NEVPT2, CIM, IAO-localization
   Andreas Hansen         : Spin unrestricted coupled pair/coupled cluster methods
   Benjamin Helmich-Paris : CASSCF linear response (MC-RPA)
   Lee Huntington         : MR-EOM, pCC
   Robert Izsak           : Overlap fitted RIJCOSX, COSX-SCS-MP3, EOM
   Christian Kollmar      : KDIIS, OOCD, Brueckner-CCSD(T), CCSD density
   Simone Kossmann        : Meta GGA functionals, TD-DFT gradient, OOMP2, MP2 Hessian
   Martin Krupicka        : AUTO-CI
   Lucas Lang             : DCDCAS
   Dagmar Lenk            : GEPOL surface, SMD
   Dimitrios Liakos       : Extrapolation schemes; Compound Job, initial MDCI parallelization
   Dimitrios Manganas     : Further ROCIS development; embedding schemes
   Dimitrios Pantazis     : SARC Basis sets
   Taras Petrenko         : DFT Hessian,TD-DFT gradient, ASA, ECA, R-Raman, ABS, FL, XAS/XES, NRVS
   Peter Pinski           : DLPNO-MP2, DLPNO-MP2 Gradient
   Christoph Reimann      : Effective Core Potentials
   Marius Retegan         : Local ZFS, SOC
   Christoph Riplinger    : Optimizer, TS searches, QM/MM, DLPNO-CCSD(T), (RO)-DLPNO pert. Triples
   Tobias Risthaus        : Range-separated hybrids, TD-DFT gradient, RPA, STAB
   Michael Roemelt        : Original ROCIS implementation
   Masaaki Saitow         : Open-shell DLPNO-CCSD energy and density
   Barbara Sandhoefer     : DKH picture change effects
   Avijit Sen             : IP-ROCIS
   Kantharuban Sivalingam : CASSCF convergence, NEVPT2, FIC-MRCI
   Bernardo de Souza      : ESD, SOC TD-DFT
   Georgi Stoychev        : AutoAux, RI-MP2 NMR
   Willem Van den Heuvel  : Paramagnetic NMR
   Boris Wezisla          : Elementary symmetry handling
   Frank Wennmohs         : Technical directorship


 We gratefully acknowledge several colleagues who have allowed us to
 interface, adapt or use parts of their codes:
   Stefan Grimme, W. Hujo, H. Kruse,             : VdW corrections, initial TS optimization,
                  C. Bannwarth                     DFT functionals, gCP, sTDA/sTD-DF
   Ed Valeev, F. Pavosevic, A. Kumar             : LibInt (2-el integral package), F12 methods
   Garnet Chan, S. Sharma, J. Yang, R. Olivares  : DMRG
   Ulf Ekstrom                                   : XCFun DFT Library
   Mihaly Kallay                                 : mrcc  (arbitrary order and MRCC methods)
   Andreas Klamt, Michael Diedenhofen            : otool_cosmo (COSMO solvation model)
   Jiri Pittner, Ondrej Demel                    : Mk-CCSD
   Frank Weinhold                                : gennbo (NPA and NBO analysis)
   Christopher J. Cramer and Donald G. Truhlar   : smd solvation model
   Lars Goerigk                                  : TD-DFT with DH, B97 family of functionals
   V. Asgeirsson, H. Jonsson                     : NEB implementation
   FAccTs GmbH                                   : IRC, NEB, NEB-TS, Multilevel, MM, QM/MM, CI optimization
   S Lehtola, MJT Oliveira, MAL Marques          : LibXC Library


 Your calculation uses the libint2 library for the computation of 2-el integrals
 For citations please refer to: http://libint.valeyev.net

 Your ORCA version has been built with support for libXC version: 4.2.3
 For citations please refer to: https://tddft.org/programs/libxc/

 This ORCA versions uses:
   CBLAS   interface :  Fast vector & matrix operations
   LAPACKE interface :  Fast linear algebra routines
   SCALAPACK package :  Parallel linear algebra routines


Your calculation utilizes the atom-pairwise dispersion correction
with the Becke-Johnson damping scheme (D3BJ)
Cite in your paper:
S.Grimme, S.Ehrlich, L.Goerigk, J Comput Chem, (2011), 32, 1456–1465 
S.Grimme, J.Antony, S.Ehrlich and H.Krieg, J.Chem.Phys., 132, (2010), 154104 
   

Your calculation employs the composite approach B97-3c by Grimme and coworkers.
For the correct reference, please check the publication list of the Grimme group:
http://www.thch.uni-bonn.de/tc/index.php?section=publikationen&subsection=grimme#2017
   

XCFun DFT library Copyright 2009-2010 Ulf Ekstrom and contributors.
See http://admol.org/xcfun for more information. This is free soft-
ware; see the source code for copying conditions. There is ABSOLUTELY
NO WARRANTY; not even for MERCHANTABILITY or FITNESS FOR A PARTICULAR
PURPOSE. For details see the documentation. Scientific users of this 
library should cite U. Ekstrom, L. Visscher, R. Bast, A. J. Thorvald-
sen and K. Ruud; J.Chem.Theor.Comp. 2010, DOI: 10.1021/ct100117s
XCFun Version 0.99 
----- Orbital basis set information -----
Your calculation utilizes the basis: def2-mTZVP
----- AuxJ basis set information -----
Your calculation utilizes the basis: def2-mTZVP/J
cite the ECPs for Pt [Def2-ECP] as follows:
Ce-Yb(ecp-28): M. Dolg, H. Stoll, H.Preuss, J. Chem. Phys., 1989, 90, 1730-1734.
Y-Cd(ecp-28), Hf-Hg(ecp-46): D. Andrae,U. Haeussermann, M. Dolg, H. Stoll, H. Preuss, Theor. Chim. Acta, 1990, 77, 123-141.
In-Sb(ecp-28), Tl-Bi(ecp-46): B. Metz, H. Stoll, M. Dolg, J. Chem. Phys., 2000, 113, 2563-2569.
Te-Xe(ecp-28), Po-Rn(ecp-46): K. A. Peterson, D. Figgen, E. Goll, H. Stoll, M. Dolg, J. Chem. Phys., 2003, 119, 11113-11123.
Rb(ecp-28), Cs(ecp-46): T. Leininger, A. Nicklass, W. Kuechle, H. Stoll, M. Dolg, A. Bergner, Chem. Phys. Lett., 1996, 255, 274-280.
Sr(ecp-28), Ba(ecp-46): M. Kaupp, P. V. Schleyer, H. Stoll and H. Preuss, J. Chem. Phys., 1991, 94, 1360-1366.
La(ecp-46): M. Dolg, H. Stoll, A. Savin, H. Preuss, Theor. Chim. Acta, 1989, 75, 173-194.
Lu(ecp-28): X. Cao, M. Dolg, J. Chem. Phys., 2001, 115, 7348-7355.

ECP parameters for Pt [Def2-ECP] have been obtained from:
TURBOMOLE (7.0.2)

================================================================================
                                        WARNINGS
                       Please study these warnings very carefully!
================================================================================


WARNING: Geometry Optimization
  ===> : Switching off AutoStart
         For restart on a previous wavefunction, please use MOREAD

WARNING: No Hueckel Guess possible with ECP basis!
  ===> : Switching to HCORE guess!

INFO   : the flag for use of LIBINT has been found!

================================================================================
                                       INPUT FILE
================================================================================
NAME = cisplatin.inp
|  1> ! B97-3c Opt Freq TightOpt TightSCF
|  2> 
|  3> %pal
|  4>  nprocs 4
|  5> end
|  6> 
|  7> *xyz 0 1
|  8> Pt      -4.472668000     -1.122764000     -2.089989000
|  9> Cl      -6.747170000     -0.830282000     -2.537592000
| 10> Cl      -4.110303806     -1.717893033     -4.320230114
| 11> N       -4.806815000     -0.599937000     -0.142338000
| 12> H       -5.791113840     -0.387860970     -0.014243431
| 13> H       -4.249919470      0.208286508      0.108201003
| 14> N       -2.485479828     -1.374163869     -1.681573116
| 15> H       -2.355167656     -2.098500339     -0.985530916
| 16> H       -2.089128983     -0.516055041     -1.317007560
| 17> H       -1.996581553     -1.630310713     -2.533434652
| 18> H       -4.548895969     -1.360300447      0.475426347
| 19> *
| 20> 
| 21>                          ****END OF INPUT****
================================================================================

                       *****************************
                       * Geometry Optimization Run *
                       *****************************

Geometry optimization settings:
Update method            Update   .... BFGS
Choice of coordinates    CoordSys .... Z-matrix Internals
Initial Hessian          InHess   .... Almoef's Model

Convergence Tolerances:
Energy Change            TolE     ....  1.0000e-06 Eh
Max. Gradient            TolMAXG  ....  1.0000e-04 Eh/bohr
RMS Gradient             TolRMSG  ....  3.0000e-05 Eh/bohr
Max. Displacement        TolMAXD  ....  1.0000e-03 bohr
RMS Displacement         TolRMSD  ....  6.0000e-04 bohr
Strict Convergence                ....  False
------------------------------------------------------------------------------
                        ORCA OPTIMIZATION COORDINATE SETUP
------------------------------------------------------------------------------

The optimization will be done in new redundant internal coordinates
Making redundant internal coordinates   ...  (new redundants) done
Evaluating the initial hessian          ...  (Almloef) done
Evaluating the coordinates              ...  done
Calculating the B-matrix                .... done
Calculating the G-matrix                .... done
Diagonalizing the G-matrix              .... done
The first mode is                       ....   11
The number of degrees of freedom        ....   27

    -----------------------------------------------------------------
                    Redundant Internal Coordinates


    -----------------------------------------------------------------
         Definition                    Initial Value    Approx d2E/dq
    -----------------------------------------------------------------
      1. B(Cl  1,Pt  0)                  2.3365         0.060289   
      2. B(Cl  2,Pt  0)                  2.3365         0.060279   
      3. B(N   3,Pt  0)                  2.0441         0.070451   
      4. B(H   4,N   3)                  1.0150         0.424830   
      5. B(H   5,N   3)                  1.0130         0.427997   
      6. B(N   6,Pt  0)                  2.0442         0.070415   
      7. B(H   7,N   6)                  1.0130         0.428004   
      8. B(H   8,N   6)                  1.0131         0.427823   
      9. B(H   9,N   6)                  1.0150         0.424774   
     10. B(H  10,N   3)                  1.0131         0.427858   
     11. A(N   3,Pt  0,N   6)           90.0000         0.222120   
     12. A(Cl  2,Pt  0,N   6)           90.4938         0.225583   
     13. A(Cl  1,Pt  0,Cl  2)           90.0000         0.229157   
     14. A(Cl  1,Pt  0,N   3)           89.5062         0.225604   
     15. A(Pt  0,N   3,H   4)          109.4031         0.257193   
     16. A(Pt  0,N   3,H  10)          110.3304         0.257464   
     17. A(H   4,N   3,H  10)          109.0720         0.301824   
     18. A(H   5,N   3,H  10)          107.9423         0.302182   
     19. A(H   4,N   3,H   5)          109.5853         0.301840   
     20. A(Pt  0,N   3,H   5)          110.4790         0.257476   
     21. A(H   8,N   6,H   9)          109.1059         0.301814   
     22. A(H   7,N   6,H   9)          109.5274         0.301834   
     23. A(Pt  0,N   6,H   9)          109.3645         0.257168   
     24. A(H   7,N   6,H   8)          107.9432         0.302179   
     25. A(Pt  0,N   6,H   8)          110.3674         0.257441   
     26. A(Pt  0,N   6,H   7)          110.5038         0.257457   
     27. D(H  10,N   3,Pt  0,Cl  1)    119.4910         0.001725   
     28. D(H   5,N   3,Pt  0,N   6)     58.7699         0.001725   
     29. D(H   4,N   3,Pt  0,Cl  1)     -0.5055         0.001725   
     30. D(H  10,N   3,Pt  0,N   6)    -60.5090         0.001725   
     31. D(H   5,N   3,Pt  0,Cl  1)   -121.2301         0.001725   
     32. D(H   4,N   3,Pt  0,N   6)    179.4945         0.001725   
     33. D(H   7,N   6,Pt  0,Cl  2)   -118.7685         0.001725   
     34. D(H   9,N   6,Pt  0,N   3)   -178.1249         0.001725   
     35. D(H   9,N   6,Pt  0,Cl  2)      1.8751         0.001725   
     36. D(H   8,N   6,Pt  0,N   3)    -58.0880         0.001725   
     37. D(H   8,N   6,Pt  0,Cl  2)    121.9120         0.001725   
     38. D(H   7,N   6,Pt  0,N   3)     61.2315         0.001725   
    -----------------------------------------------------------------

Number of atoms                         .... 11
Number of degrees of freedom            .... 38

         *************************************************************
         *                GEOMETRY OPTIMIZATION CYCLE   1            *
         *************************************************************
---------------------------------
CARTESIAN COORDINATES (ANGSTROEM)
---------------------------------
  Pt    -4.472668   -1.122764   -2.089989
  Cl    -6.747170   -0.830282   -2.537592
  Cl    -4.110304   -1.717893   -4.320230
  N     -4.806815   -0.599937   -0.142338
  H     -5.791114   -0.387861   -0.014243
  H     -4.249919    0.208287    0.108201
  N     -2.485480   -1.374164   -1.681573
  H     -2.355168   -2.098500   -0.985531
  H     -2.089129   -0.516055   -1.317008
  H     -1.996582   -1.630311   -2.533435
  H     -4.548896   -1.360300    0.475426

----------------------------
CARTESIAN COORDINATES (A.U.)
----------------------------
  NO LB      ZA    FRAG     MASS         X           Y           Z
   0 Pt   18.0000*   0   195.090   -8.452118   -2.121716   -3.949507
   1 Cl   17.0000    0    35.453  -12.750303   -1.569006   -4.795354
   2 Cl   17.0000    0    35.453   -7.767349   -3.246347   -8.164052
   3 N     7.0000    0    14.007   -9.083564   -1.133717   -0.268980
   4 H     1.0000    0     1.008  -10.943619   -0.732951   -0.026916
   5 H     1.0000    0     1.008   -8.031184    0.393604    0.204470
   6 N     7.0000    0    14.007   -4.696876   -2.596793   -3.177713
   7 H     1.0000    0     1.008   -4.450622   -3.965591   -1.862384
   8 H     1.0000    0     1.008   -3.947882   -0.975203   -2.488784
   9 H     1.0000    0     1.008   -3.772992   -3.080841   -4.787498
  10 H     1.0000    0     1.008   -8.596168   -2.570595    0.898426
* core charge reduced due to ECP

--------------------------------
INTERNAL COORDINATES (ANGSTROEM)
--------------------------------
 Pt     0   0   0     0.000000000000     0.00000000     0.00000000
 Cl     1   0   0     2.336504550378     0.00000000     0.00000000
 Cl     1   2   0     2.336549122443    90.00000000     0.00000000
 N      1   2   3     2.044100464101    89.50620594   180.00000000
 H      4   1   2     1.015001806665   109.40312055   359.49445674
 H      4   1   2     1.012979596163   110.47896818   238.76992597
 N      1   2   3     2.044241242949   179.50620595   179.99999852
 H      7   1   4     1.012975482489   110.50383907    61.23149992
 H      7   1   4     1.013090715408   110.36742504   301.91199598
 H      7   1   4     1.015037341927   109.36447206   181.87506141
 H      4   1   2     1.013068401694   110.33035538   119.49097429

---------------------------
INTERNAL COORDINATES (A.U.)
---------------------------
 Pt     0   0   0     0.000000000000     0.00000000     0.00000000
 Cl     1   0   0     4.415353710875     0.00000000     0.00000000
 Cl     1   2   0     4.415437939871    90.00000000     0.00000000
 N      1   2   3     3.862790067373    89.50620594   180.00000000
 H      4   1   2     1.918075440032   109.40312055   359.49445674
 H      4   1   2     1.914254015998   110.47896818   238.76992597
 N      1   2   3     3.863056100840   179.50620595   179.99999852
 H      7   1   4     1.914246242281   110.50383907    61.23149992
 H      7   1   4     1.914464000939   110.36742504   301.91199598
 H      7   1   4     1.918142591945   109.36447206   181.87506141
 H      4   1   2     1.914421834130   110.33035538   119.49097429

---------------------
BASIS SET INFORMATION
---------------------
There are 4 groups of distinct atoms

 Group   1 Type Pt  : 8s7p6d contracted to 6s5p3d pattern {311111/31111/411}
 Group   2 Type Cl  : 14s9p1d contracted to 5s4p1d pattern {73211/6111/1}
 Group   3 Type N   : 11s6p1d contracted to 5s3p1d pattern {62111/411/1}
 Group   4 Type H   : 5s contracted to 3s pattern {311}

Atom   0Pt   basis set group =>   1
Atom   1Cl   basis set group =>   2
Atom   2Cl   basis set group =>   2
Atom   3N    basis set group =>   3
Atom   4H    basis set group =>   4
Atom   5H    basis set group =>   4
Atom   6N    basis set group =>   3
Atom   7H    basis set group =>   4
Atom   8H    basis set group =>   4
Atom   9H    basis set group =>   4
Atom  10H    basis set group =>   4
---------------------------------
AUXILIARY/J BASIS SET INFORMATION
---------------------------------
There are 4 groups of distinct atoms

 Group   1 Type Pt  : 11s5p5d3f3g contracted to 8s5p5d2f3g pattern {41111111/11111/11111/21/111}
 Group   2 Type Cl  : 14s5p5d2f1g contracted to 8s4p3d1f1g pattern {71111111/2111/311/2/1}
 Group   3 Type N   : 8s3p3d contracted to 6s3p3d pattern {311111/111/111}
 Group   4 Type H   : 5s2p contracted to 3s1p pattern {311/2}

Atom   0Pt   basis set group =>   1
Atom   1Cl   basis set group =>   2
Atom   2Cl   basis set group =>   2
Atom   3N    basis set group =>   3
Atom   4H    basis set group =>   4
Atom   5H    basis set group =>   4
Atom   6N    basis set group =>   3
Atom   7H    basis set group =>   4
Atom   8H    basis set group =>   4
Atom   9H    basis set group =>   4
Atom  10H    basis set group =>   4
-------------------------
ECP PARAMETER INFORMATION
-------------------------

 Group 1, Type Pt ECP Def2-ECP (replacing 60 core electrons, lmax=3)

Atom   0Pt   ECP group =>   1



           ************************************************************
           *        Program running with 4 parallel MPI-processes     *
           *              working on a common directory               *
           ************************************************************
------------------------------------------------------------------------------
                           ORCA GTO INTEGRAL CALCULATION
                           -- RI-GTO INTEGRALS CHOSEN --
------------------------------------------------------------------------------

                         BASIS SET STATISTICS AND STARTUP INFO

Gaussian basis set:
 # of primitive gaussian shells          ...  135
 # of primitive gaussian functions       ...  249
 # of contracted shells                  ...   70
 # of contracted basis functions         ...  136
 Highest angular momentum                ...    2
 Maximum contraction depth               ...    7
Auxiliary gaussian basis set:
 # of primitive gaussian shells          ...  151
 # of primitive gaussian functions       ...  383
 # of contracted shells                  ...  105
 # of contracted aux-basis functions     ...  287
 Highest angular momentum                ...    4
 Maximum contraction depth               ...    7
Ratio of auxiliary to basis functions    ...  2.11
Integral package used                  ... LIBINT
 One Electron integrals                  
   ECP integrals                         ... done
 Ordering auxiliary basis shells         ... done
 Integral threshhold             Thresh  ...  2.500e-11
 Primitive cut-off               TCut    ...  2.500e-12
 Pre-screening matrix                    ... done
 Shell pair data                         ... 
 Ordering of the shell pairs             ... done (   0.000 sec) 2260 of 2485 pairs
 Determination of significant pairs      ... done (   0.000 sec)
 Creation of shell pair data             ... done (   0.000 sec)
 Storage of shell pair data              ... done (   0.001 sec)
 Shell pair data done in (   0.002 sec)
 Computing two index integrals           ... done
 Cholesky decomposition of the V-matrix  ... done


Timings:
 Total evaluation time                   ...   0.235 sec (  0.004 min)
 One electron matrix time                ...   0.136 sec (  0.002 min) = 57.9%
 Schwartz matrix evaluation time         ...   0.074 sec (  0.001 min) = 31.7%
 Two index repulsion integral time       ...   0.002 sec (  0.000 min) =  0.7%
 Cholesky decomposition of V             ...   0.002 sec (  0.000 min) =  0.9%
 Three index repulsion integral time     ...   0.000 sec (  0.000 min) =  0.0%



           ************************************************************
           *        Program running with 4 parallel MPI-processes     *
           *              working on a common directory               *
           ************************************************************
-------------------------------------------------------------------------------
                                 ORCA SCF
-------------------------------------------------------------------------------

------------
SCF SETTINGS
------------
Hamiltonian:
 Density Functional     Method          .... DFT(GTOs)
 Exchange Functional    Exchange        .... B973C
 Correlation Functional Correlation     .... B973C
 Gradients option       PostSCFGGA      .... off
   Density functional embedding theory  .... OFF
 RI-approximation to the Coulomb term is turned on
   Number of auxiliary basis functions  .... 287


General Settings:
 Integral files         IntName         .... cisplatin
 Hartree-Fock type      HFTyp           .... RHF
 Total Charge           Charge          ....    0
 Multiplicity           Mult            ....    1
 Number of Electrons    NEL             ....   72
 Basis Dimension        Dim             ....  136
 Nuclear Repulsion      ENuc            ....    409.9720243704 Eh

Convergence Acceleration:
 DIIS                   CNVDIIS         .... on
   Start iteration      DIISMaxIt       ....    12
   Startup error        DIISStart       ....  0.200000
   # of expansion vecs  DIISMaxEq       ....     5
   Bias factor          DIISBfac        ....   1.050
   Max. coefficient     DIISMaxC        ....  10.000
 Newton-Raphson         CNVNR           .... off
 SOSCF                  CNVSOSCF        .... off
 Level Shifting         CNVShift        .... on
   Level shift para.    LevelShift      ....    0.2500
   Turn off err/grad.   ShiftErr        ....    0.0010
 Zerner damping         CNVZerner       .... off
 Static damping         CNVDamp         .... on
   Fraction old density DampFac         ....    0.7000
   Max. Damping (<1)    DampMax         ....    0.9800
   Min. Damping (>=0)   DampMin         ....    0.0000
   Turn off err/grad.   DampErr         ....    0.1000
 Fernandez-Rico         CNVRico         .... off

SCF Procedure:
 Maximum # iterations   MaxIter         ....   125
 SCF integral mode      SCFMode         .... Direct
   Integral package                     .... LIBINT
 Reset frequency        DirectResetFreq ....    20
 Integral Threshold     Thresh          ....  2.500e-11 Eh
 Primitive CutOff       TCut            ....  2.500e-12 Eh

Convergence Tolerance:
 Convergence Check Mode ConvCheckMode   .... Total+1el-Energy
 Convergence forced     ConvForced      .... 0
 Energy Change          TolE            ....  1.000e-08 Eh
 1-El. energy change                    ....  1.000e-05 Eh
 DIIS Error             TolErr          ....  5.000e-07


Diagonalization of the overlap matrix:
Smallest eigenvalue                        ... 2.712e-03
Time for diagonalization                   ...    0.004 sec
Threshold for overlap eigenvalues          ... 1.000e-08
Number of eigenvalues below threshold      ... 0
Time for construction of square roots      ...    0.004 sec
Total time needed                          ...    0.008 sec

--------------------
INITIAL GUESS: HCORE
--------------------
                      -----------------
                      INTIAL GUESS DONE 
                      -----------------
-------------------
DFT GRID GENERATION
-------------------

General Integration Accuracy     IntAcc      ...  4.340
Radial Grid Type                 RadialGrid  ... Gauss-Chebyshev
Angular Grid (max. acc.)         AngularGrid ... Lebedev-194
Angular grid pruning method      GridPruning ... 3 (G Style)
Weight generation scheme         WeightScheme... Becke
Basis function cutoff            BFCut       ...    1.0000e-11
Integration weight cutoff        WCut        ...    1.0000e-14
Grids for H and He will be reduced by one unit

# of grid points (after initial pruning)     ...  29822 (   0.0 sec)
# of grid points (after weights+screening)   ...  28387 (   0.0 sec)
nearest neighbour list constructed           ...    0.0 sec
Grid point re-assignment to atoms done       ...    0.0 sec
Grid point division into batches done        ...    0.1 sec
Reduced shell lists constructed in    0.1 sec

Total number of grid points                  ...    28387
Total number of batches                      ...      449
Average number of points per batch           ...       63
Average number of grid points per atom       ...     2581
Average number of shells per batch           ...    47.32 (67.59%)
Average number of basis functions per batch  ...    99.51 (73.17%)
Average number of large shells per batch     ...    38.88 (82.17%)
Average number of large basis fcns per batch ...    83.79 (84.20%)
Maximum spatial batch extension              ...  24.72, 33.50, 24.25 au
Average spatial batch extension              ...   0.71,  0.83,  0.75 au

Time for grid setup =    0.124 sec

--------------
SCF ITERATIONS
--------------
ITER       Energy         Delta-E        Max-DP      RMS-DP      [F,P]     Damp
               ***  Starting incremental Fock matrix formation  ***
  0  -1058.2984855305   0.00000000000012.80288417  0.24421479  2.0880872 0.7000
  1  -1104.6205368223 -46.322051291769 4.68570189  0.08463761  1.4972207 0.7000
  2  -1118.0913620943 -13.470825271971 3.56370975  0.07906533  1.0891594 0.7000
  3  -1129.1084161919 -11.017054097630 2.51725811  0.05573706  0.7928369 0.7000
  4  -1136.4017257790  -7.293309587121 1.77287571  0.03921359  0.5705882 0.7000
  5  -1141.4433599605  -5.041634181460 1.24324564  0.02744318  0.4079438 0.7000
  6  -1144.9440203561  -3.500660395652 0.86899445  0.01914808  0.2905403 0.7000
  7  -1147.3834446135  -2.439424257361 0.60588710  0.01336614  0.2064015 0.7000
                               ***Turning on DIIS***
  8  -1149.0885229669  -1.705078353388 0.42222737  0.00934679  0.1463572 0.7000
  9  -1150.2814240198  -1.192901052975 0.29515799  0.00655537  0.1036497 0.7000
 10  -1151.1163590825  -0.834935062663 0.68643945  0.01529206  0.0727911 0.0000
 11  -1153.0648911941  -1.948532111623 0.00936782  0.00020685  0.0021082 0.0000
 12  -1153.0649192872  -0.000028093091 0.00313037  0.00008864  0.0026190 0.0000
 13  -1153.0649435703  -0.000024283129 0.00284375  0.00008306  0.0002123 0.0000
 14  -1153.0649462443  -0.000002673939 0.00027621  0.00000764  0.0001636 0.0000
 15  -1153.0649463960  -0.000000151756 0.00003935  0.00000163  0.0000981 0.0000
 16  -1153.0649464220  -0.000000025995 0.00003583  0.00000137  0.0000289 0.0000
 17  -1153.0649464324  -0.000000010346 0.00001615  0.00000066  0.0000143 0.0000
 18  -1153.0649464250   0.000000007415 0.00000462  0.00000013  0.0000038 0.0000
 19  -1153.0649464332  -0.000000008268 0.00000301  0.00000009  0.0000024 0.0000
               *** Restarting incremental Fock matrix formation ***
                                   *** Resetting DIIS ***
                            ***DIIS convergence achieved***

               *****************************************************
               *                     SUCCESS                       *
               *           SCF CONVERGED AFTER  20 CYCLES          *
               *****************************************************

Setting up the final grid:

General Integration Accuracy     IntAcc      ...  4.670
Radial Grid Type                 RadialGrid  ... Gauss-Chebyshev
Angular Grid (max. acc.)         AngularGrid ... Lebedev-302
Angular grid pruning method      GridPruning ... 3 (G Style)
Weight generation scheme         WeightScheme... Becke
Basis function cutoff            BFCut       ...    1.0000e-11
Integration weight cutoff        WCut        ...    1.0000e-14
Grids for H and He will be reduced by one unit

# of grid points (after initial pruning)     ...  57916 (   0.0 sec)
# of grid points (after weights+screening)   ...  54816 (   0.0 sec)
nearest neighbour list constructed           ...    0.0 sec
Grid point re-assignment to atoms done       ...    0.0 sec
Grid point division into batches done        ...    0.3 sec
Reduced shell lists constructed in    0.3 sec

Total number of grid points                  ...    54816
Total number of batches                      ...      862
Average number of points per batch           ...       63
Average number of grid points per atom       ...     4983
Average number of shells per batch           ...    45.90 (65.58%)
Average number of basis functions per batch  ...    96.57 (71.01%)
Average number of large shells per batch     ...    37.38 (81.44%)
Average number of large basis fcns per batch ...    80.70 (83.57%)
Maximum spatial batch extension              ...  22.90, 31.96, 24.85 au
Average spatial batch extension              ...   0.59,  0.68,  0.65 au

Final grid set up in    0.4 sec
Final integration                            ... done (   0.2 sec)
Change in XC energy                          ...     0.000637481
Integrated number of electrons               ...    71.999895321
Previous integrated no of electrons          ...    72.000169676

----------------
TOTAL SCF ENERGY
----------------

Total Energy       :        -1153.06430895 Eh          -31376.47500 eV

Components:
Nuclear Repulsion  :          409.97202437 Eh           11155.90594 eV
Electronic Energy  :        -1563.03633332 Eh          -42532.38093 eV
One Electron Energy:        -2451.93499554 Eh          -66720.54324 eV
Two Electron Energy:          888.89866222 Eh           24188.16230 eV

Virial components:
Potential Energy   :        -2225.07171063 Eh          -60547.27941 eV
Kinetic Energy     :         1072.00740167 Eh           29170.80441 eV
Virial Ratio       :            2.07561226


DFT components:
N(Alpha)           :       35.999947660424 electrons
N(Beta)            :       35.999947660424 electrons
N(Total)           :       71.999895320849 electrons
E(XC)              :      -84.375200597645 Eh       
DFET-embed. en.    :        0.000000000000 Eh       

---------------
SCF CONVERGENCE
---------------

  Last Energy change         ...   -6.3460e-10  Tolerance :   1.0000e-08
  Last MAX-Density change    ...    2.8518e-06  Tolerance :   1.0000e-07
  Last RMS-Density change    ...    7.2549e-08  Tolerance :   5.0000e-09
  Last DIIS Error            ...    6.4317e-07  Tolerance :   5.0000e-07

             **** THE GBW FILE WAS UPDATED (cisplatin.gbw) ****
             **** DENSITY FILE WAS UPDATED (cisplatin.scfp) ****
             **** ENERGY FILE WAS UPDATED (cisplatin.en.tmp) ****
             **** THE GBW FILE WAS UPDATED (cisplatin.gbw) ****
             **** DENSITY FILE WAS UPDATED (cisplatin.scfp) ****
----------------
ORBITAL ENERGIES
----------------

  NO   OCC          E(Eh)            E(eV) 
   0   2.0000    -100.563342     -2736.4677 
   1   2.0000    -100.562672     -2736.4494 
   2   2.0000     -14.084777      -383.2663 
   3   2.0000     -14.084234      -383.2515 
   4   2.0000      -9.148989      -248.9566 
   5   2.0000      -9.148299      -248.9379 
   6   2.0000      -6.982247      -189.9966 
   7   2.0000      -6.981542      -189.9774 
   8   2.0000      -6.974014      -189.7726 
   9   2.0000      -6.973918      -189.7699 
  10   2.0000      -6.973328      -189.7539 
  11   2.0000      -6.973251      -189.7518 
  12   2.0000      -3.783171      -102.9453 
  13   2.0000      -2.078401       -56.5562 
  14   2.0000      -2.078351       -56.5548 
  15   2.0000      -2.034137       -55.3517 
  16   2.0000      -0.892454       -24.2849 
  17   2.0000      -0.885301       -24.0903 
  18   2.0000      -0.668517       -18.1913 
  19   2.0000      -0.660301       -17.9677 
  20   2.0000      -0.531148       -14.4533 
  21   2.0000      -0.526423       -14.3247 
  22   2.0000      -0.517483       -14.0814 
  23   2.0000      -0.511281       -13.9127 
  24   2.0000      -0.421182       -11.4609 
  25   2.0000      -0.417391       -11.3578 
  26   2.0000      -0.283990        -7.7278 
  27   2.0000      -0.280642        -7.6367 
  28   2.0000      -0.272319        -7.4102 
  29   2.0000      -0.253047        -6.8857 
  30   2.0000      -0.250350        -6.8124 
  31   2.0000      -0.203962        -5.5501 
  32   2.0000      -0.203190        -5.5291 
  33   2.0000      -0.192717        -5.2441 
  34   2.0000      -0.188906        -5.1404 
  35   2.0000      -0.181106        -4.9282 
  36   0.0000      -0.076593        -2.0842 
  37   0.0000      -0.055781        -1.5179 
  38   0.0000       0.000896         0.0244 
  39   0.0000       0.002533         0.0689 
  40   0.0000       0.032362         0.8806 
  41   0.0000       0.048977         1.3327 
  42   0.0000       0.062587         1.7031 
  43   0.0000       0.065393         1.7794 
  44   0.0000       0.066631         1.8131 
  45   0.0000       0.129912         3.5351 
  46   0.0000       0.146517         3.9869 
  47   0.0000       0.151654         4.1267 
  48   0.0000       0.195766         5.3271 
  49   0.0000       0.227841         6.1999 
  50   0.0000       0.278579         7.5805 
  51   0.0000       0.289834         7.8868 
  52   0.0000       0.299633         8.1534 
  53   0.0000       0.315299         8.5797 
  54   0.0000       0.318029         8.6540 
  55   0.0000       0.319389         8.6910 
  56   0.0000       0.339262         9.2318 
  57   0.0000       0.356117         9.6904 
  58   0.0000       0.369734        10.0610 
  59   0.0000       0.378802        10.3077 
  60   0.0000       0.389324        10.5940 
  61   0.0000       0.390909        10.6372 
  62   0.0000       0.406991        11.0748 
  63   0.0000       0.419164        11.4060 
  64   0.0000       0.423005        11.5106 
  65   0.0000       0.424673        11.5559 
  66   0.0000       0.425198        11.5702 
  67   0.0000       0.461685        12.5631 
  68   0.0000       0.473225        12.8771 
  69   0.0000       0.487222        13.2580 
  70   0.0000       0.495686        13.4883 
  71   0.0000       0.523154        14.2357 
  72   0.0000       0.572994        15.5920 
  73   0.0000       0.623076        16.9548 
  74   0.0000       0.697948        18.9921 
  75   0.0000       0.705067        19.1858 
  76   0.0000       0.707370        19.2485 
  77   0.0000       0.708278        19.2732 
  78   0.0000       0.747277        20.3344 
  79   0.0000       0.773646        21.0520 
  80   0.0000       0.797752        21.7079 
  81   0.0000       0.806253        21.9393 
  82   0.0000       0.807435        21.9714 
  83   0.0000       0.840962        22.8837 
  84   0.0000       0.899658        24.4809 
  85   0.0000       0.981672        26.7127 
  86   0.0000       1.093501        29.7557 
  87   0.0000       1.105413        30.0798 
  88   0.0000       1.261256        34.3205 
  89   0.0000       1.306603        35.5545 
  90   0.0000       1.317178        35.8422 
  91   0.0000       1.488224        40.4966 
  92   0.0000       1.504980        40.9526 
  93   0.0000       1.538007        41.8513 
  94   0.0000       1.566034        42.6140 
  95   0.0000       1.619626        44.0723 
  96   0.0000       1.628577        44.3158 
  97   0.0000       1.639857        44.6228 
  98   0.0000       1.640746        44.6470 
  99   0.0000       1.680300        45.7233 
 100   0.0000       1.686848        45.9015 
 101   0.0000       1.708247        46.4838 
 102   0.0000       1.785694        48.5912 
 103   0.0000       1.933985        52.6264 
 104   0.0000       1.935472        52.6669 
 105   0.0000       1.950802        53.0840 
 106   0.0000       1.972177        53.6657 
 107   0.0000       2.001668        54.4682 
 108   0.0000       2.008855        54.6637 
 109   0.0000       2.186910        59.5089 
 110   0.0000       2.208589        60.0988 
 111   0.0000       2.246035        61.1177 
 112   0.0000       2.268682        61.7340 
 113   0.0000       2.276030        61.9339 
 114   0.0000       2.339201        63.6529 
 115   0.0000       2.347738        63.8852 
 116   0.0000       2.485763        67.6411 
 117   0.0000       2.556114        69.5554 
 118   0.0000       2.735805        74.4450 
 119   0.0000       2.771057        75.4043 
 120   0.0000       2.887361        78.5691 
 121   0.0000       2.900799        78.9348 
 122   0.0000       2.907801        79.1253 
 123   0.0000       3.013429        81.9996 
 124   0.0000       3.557017        96.7914 
 125   0.0000       3.881560       105.6226 
 126   0.0000       3.963857       107.8620 
 127   0.0000      24.477514       666.0670 
 128   0.0000      24.676162       671.4725 
 129   0.0000      31.272862       850.9778 
 130   0.0000      31.276683       851.0818 
 131   0.0000      51.406358      1398.8381 
 132   0.0000      51.660566      1405.7555 
 133   0.0000      51.730565      1407.6602 
 134   0.0000      52.431273      1426.7275 
 135   0.0000     286.210712      7788.1894 

                    ********************************
                    * MULLIKEN POPULATION ANALYSIS *
                    ********************************

-----------------------
MULLIKEN ATOMIC CHARGES
-----------------------
   0 Pt:    0.280859
   1 Cl:   -0.367367
   2 Cl:   -0.367810
   3 N :   -0.889328
   4 H :    0.384996
   5 H :    0.365433
   6 N :   -0.891366
   7 H :    0.367606
   8 H :    0.364961
   9 H :    0.385791
  10 H :    0.366225
Sum of atomic charges:   -0.0000000

--------------------------------
MULLIKEN REDUCED ORBITAL CHARGES
--------------------------------
  0 Pts       :     2.810481  s :     2.810481
      pz      :     2.080590  p :     6.245023
      px      :     2.078817
      py      :     2.085616
      dz2     :     1.352215  d :     8.663638
      dxz     :     1.843957
      dyz     :     1.880300
      dx2y2   :     1.629776
      dxy     :     1.957388
  1 Cls       :     5.956199  s :     5.956199
      pz      :     3.923664  p :    11.389213
      px      :     3.527014
      py      :     3.938535
      dz2     :     0.002429  d :     0.021956
      dxz     :     0.006237
      dyz     :     0.000738
      dx2y2   :     0.006440
      dxy     :     0.006112
  2 Cls       :     5.956229  s :     5.956229
      pz      :     3.542389  p :    11.389669
      px      :     3.929811
      py      :     3.917470
      dz2     :     0.008505  d :     0.021911
      dxz     :     0.005268
      dyz     :     0.006388
      dx2y2   :     0.000949
      dxy     :     0.000802
  3 N s       :     3.586828  s :     3.586828
      pz      :     1.570853  p :     4.263933
      px      :     1.373065
      py      :     1.320015
      dz2     :     0.005473  d :     0.038567
      dxz     :     0.006673
      dyz     :     0.012698
      dx2y2   :     0.006787
      dxy     :     0.006935
  4 H s       :     0.615004  s :     0.615004
  5 H s       :     0.634567  s :     0.634567
  6 N s       :     3.587549  s :     3.587549
      pz      :     1.369244  p :     4.265227
      px      :     1.588604
      py      :     1.307379
      dz2     :     0.002893  d :     0.038590
      dxz     :     0.010976
      dyz     :     0.010358
      dx2y2   :     0.004616
      dxy     :     0.009748
  7 H s       :     0.632394  s :     0.632394
  8 H s       :     0.635039  s :     0.635039
  9 H s       :     0.614209  s :     0.614209
 10 H s       :     0.633775  s :     0.633775


                     *******************************
                     * LOEWDIN POPULATION ANALYSIS *
                     *******************************

----------------------
LOEWDIN ATOMIC CHARGES
----------------------
   0 Pt:   -0.517243
   1 Cl:   -0.089744
   2 Cl:   -0.090937
   3 N :   -0.526962
   4 H :    0.299875
   5 H :    0.287451
   6 N :   -0.526661
   7 H :    0.288414
   8 H :    0.287245
   9 H :    0.300714
  10 H :    0.287848

-------------------------------
LOEWDIN REDUCED ORBITAL CHARGES
-------------------------------
  0 Pts       :     2.588372  s :     2.588372
      pz      :     2.245250  p :     6.618456
      px      :     2.246735
      py      :     2.126471
      dz2     :     1.583098  d :     9.310416
      dxz     :     1.967633
      dyz     :     1.959994
      dx2y2   :     1.781729
      dxy     :     2.017962
  1 Cls       :     5.725464  s :     5.725464
      pz      :     3.884886  p :    11.339718
      px      :     3.558684
      py      :     3.896149
      dz2     :     0.002672  d :     0.024561
      dxz     :     0.007221
      dyz     :     0.000760
      dx2y2   :     0.007213
      dxy     :     0.006695
  2 Cls       :     5.725719  s :     5.725719
      pz      :     3.569827  p :    11.340647
      px      :     3.892163
      py      :     3.878656
      dz2     :     0.009659  d :     0.024572
      dxz     :     0.005996
      dyz     :     0.006978
      dx2y2   :     0.001027
      dxy     :     0.000912
  3 N s       :     3.276501  s :     3.276501
      pz      :     1.564320  p :     4.195002
      px      :     1.326357
      py      :     1.304325
      dz2     :     0.008384  d :     0.055458
      dxz     :     0.009510
      dyz     :     0.018165
      dx2y2   :     0.009484
      dxy     :     0.009915
  4 H s       :     0.700125  s :     0.700125
  5 H s       :     0.712549  s :     0.712549
  6 N s       :     3.275944  s :     3.275944
      pz      :     1.326200  p :     4.195229
      px      :     1.578944
      py      :     1.290084
      dz2     :     0.004313  d :     0.055488
      dxz     :     0.015321
      dyz     :     0.014821
      dx2y2   :     0.007249
      dxy     :     0.013785
  7 H s       :     0.711586  s :     0.711586
  8 H s       :     0.712755  s :     0.712755
  9 H s       :     0.699286  s :     0.699286
 10 H s       :     0.712152  s :     0.712152


                      *****************************
                      * MAYER POPULATION ANALYSIS *
                      *****************************

  NA   - Mulliken gross atomic population
  ZA   - Total nuclear charge
  QA   - Mulliken gross atomic charge
  VA   - Mayer's total valence
  BVA  - Mayer's bonded valence
  FA   - Mayer's free valence

  ATOM       NA         ZA         QA         VA         BVA        FA
  0 Pt    17.7191    18.0000     0.2809     2.4142     2.4142    -0.0000
  1 Cl    17.3674    17.0000    -0.3674     0.9992     0.9992    -0.0000
  2 Cl    17.3678    17.0000    -0.3678     0.9972     0.9972    -0.0000
  3 N      7.8893     7.0000    -0.8893     2.9467     2.9467    -0.0000
  4 H      0.6150     1.0000     0.3850     0.8637     0.8637    -0.0000
  5 H      0.6346     1.0000     0.3654     0.8334     0.8334    -0.0000
  6 N      7.8914     7.0000    -0.8914     2.9464     2.9464    -0.0000
  7 H      0.6324     1.0000     0.3676     0.8319     0.8319    -0.0000
  8 H      0.6350     1.0000     0.3650     0.8334     0.8334    -0.0000
  9 H      0.6142     1.0000     0.3858     0.8618     0.8618    -0.0000
 10 H      0.6338     1.0000     0.3662     0.8326     0.8326    -0.0000

  Mayer bond orders larger than 0.100000
B(  0-Pt,  1-Cl) :   0.8174 B(  0-Pt,  2-Cl) :   0.8201 B(  0-Pt,  3-N ) :   0.4047 
B(  0-Pt,  6-N ) :   0.4036 B(  3-N ,  4-H ) :   0.7988 B(  3-N ,  5-H ) :   0.8402 
B(  3-N , 10-H ) :   0.8400 B(  6-N ,  7-H ) :   0.8392 B(  6-N ,  8-H ) :   0.8410 
B(  6-N ,  9-H ) :   0.8007 

-------
TIMINGS
-------

Total SCF time: 0 days 0 hours 0 min 4 sec 

Total time                  ....       4.987 sec
Sum of individual times     ....       4.874 sec  ( 97.7%)

Fock matrix formation       ....       4.202 sec  ( 84.3%)
  Split-RI-J                ....       2.189 sec  ( 52.1% of F)
  XC integration            ....       1.973 sec  ( 47.0% of F)
    Basis function eval.    ....       0.445 sec  ( 22.6% of XC)
    Density eval.           ....       0.480 sec  ( 24.3% of XC)
    XC-Functional eval.     ....       0.399 sec  ( 20.2% of XC)
    XC-Potential eval.      ....       0.403 sec  ( 20.4% of XC)
Diagonalization             ....       0.106 sec  (  2.1%)
Density matrix formation    ....       0.007 sec  (  0.1%)
Population analysis         ....       0.005 sec  (  0.1%)
Initial guess               ....       0.006 sec  (  0.1%)
Orbital Transformation      ....       0.000 sec  (  0.0%)
Orbital Orthonormalization  ....       0.000 sec  (  0.0%)
DIIS solution               ....       0.042 sec  (  0.8%)
Grid generation             ....       0.507 sec  ( 10.2%)


-------------------------------------------------------------------------------
                          DFT DISPERSION CORRECTION                            
                                                                               
                              DFTD3 V3.1  Rev 1                                
                          USING Becke-Johnson damping                          
-------------------------------------------------------------------------------
The B97-3c composite method is recognized
Using three-body term ABC
Active option DFTDOPT                   ...         4   

molecular C6(AA) [au] = 3120.289927 


            DFT-D V3
 parameters
 s6 scaling factor         :     1.0000 
 a1 scaling factor         :     0.3700 
 s8 scaling factor         :     1.5000 
 a2 scaling factor         :     4.1000 
 Damping factor alpha9(ATM):    16.0000 
 ad hoc parameters k1-k3   :    16.0000     1.3333    -4.0000 

 Edisp/kcal,au: -18.519957050167  -0.029513427032 
 E6   /kcal   :  -7.908990497 
 E8   /kcal   : -10.627413202 
 E6(ABC)      :   0.016446648 
 % E8         :  57.383573693 
 % E6(ABC)    :  -0.088805003 

-------------------------   ----------------
Dispersion correction           -0.029513427
-------------------------   ----------------

------------------   -----------------
SRB correction            -0.025612733
------------------   -----------------

-------------------------   --------------------
FINAL SINGLE POINT ENERGY     -1153.119435113342
-------------------------   --------------------



           ************************************************************
           *        Program running with 4 parallel MPI-processes     *
           *              working on a common directory               *
           ************************************************************
------------------------------------------------------------------------------
                         ORCA SCF GRADIENT CALCULATION
------------------------------------------------------------------------------

Gradient of the Kohn-Sham DFT energy:
Kohn-Sham wavefunction type      ... RKS
Hartree-Fock exchange scaling    ...    0.000
Number of operators              ...    1
Number of atoms                  ...   11
Basis set dimensions             ...  136
Integral neglect threshold       ... 2.5e-11
Integral primitive cutoff        ... 2.5e-12

Nuclear repulsion gradient       ... done
One Electron Gradient            
  ECP gradient                   ... done
Pre-screening matrix             ... done
RI-J gradient                    ... done
Exchange-correlation gradient    ... done
Dispersion correction            ... done
SRB correction                   ... done

------------------
CARTESIAN GRADIENT
------------------

   1   Pt  :    0.018582857    0.002628983    0.023994480
   2   Cl  :   -0.006519706   -0.000586806   -0.007168313
   3   Cl  :   -0.005460878   -0.001255533   -0.008891740
   4   N   :   -0.003398172   -0.000200817   -0.006689654
   5   H   :    0.001680360   -0.000645560    0.001037061
   6   H   :    0.004596833   -0.002704176   -0.002738123
   7   N   :   -0.005329016   -0.000859174   -0.004001745
   8   H   :   -0.004068056    0.002640904    0.002962891
   9   H   :   -0.004450351    0.000397903    0.003068410
  10   H   :    0.000071926    0.000975807    0.001465475
  11   H   :    0.004294203   -0.000391530   -0.003038742

Difference to translation invariance:
           :   -0.0000000000   -0.0000000000   -0.0000000001

Norm of the cartesian gradient     ...    0.0369733101
RMS gradient                       ...    0.0064362272
MAX gradient                       ...    0.0239944803

-------
TIMINGS
-------

Total SCF gradient time            ...        1.541 sec

One electron gradient       ....       0.381 sec  ( 24.7%)
Prescreening matrices       ....       0.019 sec  (  1.2%)
RI-J Coulomb gradient       ....       0.205 sec  ( 13.3%)
XC gradient                 ....       0.787 sec  ( 51.0%)
------------------------------------------------------------------------------
                         ORCA GEOMETRY RELAXATION STEP
------------------------------------------------------------------------------

Reading the OPT-File                    .... done
Getting information on internals        .... done
Copying old internal coords+grads       .... done
Making the new internal coordinates     .... (new redundants).... done
Validating the new internal coordinates .... (new redundants).... done
Calculating the B-matrix                .... done
Calculating the G,G- and P matrices     .... done
Transforming gradient to internals      .... done
Projecting the internal gradient        .... done
Number of atoms                         ....  11
Number of internal coordinates          ....  38
Current Energy                          .... -1153.119435113 Eh
Current gradient norm                   ....     0.036973310 Eh/bohr
Maximum allowed component of the step   ....  0.300
Current trust radius                    ....  0.300
Evaluating the initial hessian          ....  (Almloef) done
Projecting the Hessian                  .... done
Forming the augmented Hessian           .... done
Diagonalizing the augmented Hessian     .... done
Last element of RFO vector              ....  0.952520829
Lowest eigenvalues of augmented Hessian:
 -0.011887545  0.001724913  0.001725138  0.001725146  0.001727860
Length of the computed step             ....  0.319650155
Warning: the length of the step is outside the trust region - taking restricted step instead
The input lambda is                     ....    -0.011888
   iter:   1  x=   -0.017457  g=    2.186363 f(x)=     0.012176
   iter:   2  x=   -0.018102  g=    1.792430 f(x)=     0.001157
   iter:   3  x=   -0.018109  g=    1.754170 f(x)=     0.000012
   iter:   4  x=   -0.018109  g=    1.753758 f(x)=     0.000000
   iter:   5  x=   -0.018109  g=    1.753758 f(x)=     0.000000
The output lambda is                    ....    -0.018109 (5 iterations)
The final length of the internal step   ....  0.300000000
Converting the step to cartesian space:
 Initial RMS(Int)=    0.0486664263
Transforming coordinates:
 Iter   0:  RMS(Cart)=    0.1400797139 RMS(Int)=    0.0489117293
 Iter   1:  RMS(Cart)=    0.0027177895 RMS(Int)=    0.0020141962
 Iter   2:  RMS(Cart)=    0.0001543010 RMS(Int)=    0.0000927748
 Iter   3:  RMS(Cart)=    0.0000076175 RMS(Int)=    0.0000076896
 Iter   4:  RMS(Cart)=    0.0000004902 RMS(Int)=    0.0000003478
 Iter   5:  RMS(Cart)=    0.0000000321 RMS(Int)=    0.0000000358
done
Storing new coordinates                 .... done

                                .--------------------.
          ----------------------|Geometry convergence|-------------------------
          Item                value                   Tolerance       Converged
          ---------------------------------------------------------------------
          RMS gradient        0.0069261173            0.0000300000      NO
          MAX gradient        0.0201723387            0.0001000000      NO
          RMS step            0.0486664263            0.0006000000      NO
          MAX step            0.1477082917            0.0010000000      NO
          ........................................................
          Max(Bonds)      0.0782      Max(Angles)    4.80
          Max(Dihed)        1.44      Max(Improp)    0.00
          ---------------------------------------------------------------------

The optimization has not yet converged - more geometry cycles are needed


    ---------------------------------------------------------------------------
                         Redundant Internal Coordinates
                            (Angstroem and degrees)

        Definition                    Value    dE/dq     Step     New-Value
    ----------------------------------------------------------------------------
     1. B(Cl  1,Pt  0)                2.3365  0.007645 -0.0516    2.2849   
     2. B(Cl  2,Pt  0)                2.3365  0.007961 -0.0537    2.2828   
     3. B(N   3,Pt  0)                2.0441 -0.013076  0.0781    2.1222   
     4. B(H   4,N   3)                1.0150 -0.001631  0.0019    1.0170   
     5. B(H   5,N   3)                1.0130 -0.000312  0.0004    1.0133   
     6. B(N   6,Pt  0)                2.0442 -0.013076  0.0782    2.1224   
     7. B(H   7,N   6)                1.0130 -0.000373  0.0004    1.0134   
     8. B(H   8,N   6)                1.0131 -0.000299  0.0004    1.0134   
     9. B(H   9,N   6)                1.0150 -0.001444  0.0017    1.0168   
    10. B(H  10,N   3)                1.0131 -0.000465  0.0006    1.0136   
    11. A(N   3,Pt  0,N   6)           90.00 -0.020172    4.80     94.80   
    12. A(Cl  2,Pt  0,N   6)           90.49  0.018095   -4.26     86.23   
    13. A(Cl  1,Pt  0,Cl  2)           90.00 -0.012178    2.82     92.82   
    14. A(Cl  1,Pt  0,N   3)           89.51  0.014255   -3.36     86.15   
    15. A(Pt  0,N   3,H   4)          109.40  0.004977   -1.51    107.89   
    16. A(Pt  0,N   3,H  10)          110.33 -0.005484    1.36    111.69   
    17. A(H   4,N   3,H  10)          109.07  0.002310   -0.77    108.30   
    18. A(H   5,N   3,H  10)          107.94  0.001130    0.51    108.45   
    19. A(H   4,N   3,H   5)          109.59  0.003053   -0.99    108.60   
    20. A(Pt  0,N   3,H   5)          110.48 -0.005921    1.39    111.87   
    21. A(H   8,N   6,H   9)          109.11  0.002532   -0.78    108.33   
    22. A(H   7,N   6,H   9)          109.53  0.003069   -1.00    108.52   
    23. A(Pt  0,N   6,H   9)          109.36  0.004362   -1.38    107.99   
    24. A(H   7,N   6,H   8)          107.94  0.000998    0.52    108.46   
    25. A(Pt  0,N   6,H   8)          110.37 -0.005681    1.40    111.77   
    26. A(Pt  0,N   6,H   7)          110.50 -0.005201    1.23    111.73   
    27. D(H  10,N   3,Pt  0,Cl  1)    119.49  0.002788   -1.09    118.40   
    28. D(H   5,N   3,Pt  0,N   6)     58.77 -0.003032    1.24     60.01   
    29. D(H   4,N   3,Pt  0,Cl  1)     -0.51  0.000200   -0.03     -0.53   
    30. D(H  10,N   3,Pt  0,N   6)    -60.51  0.002808   -1.14    -61.65   
    31. D(H   5,N   3,Pt  0,Cl  1)   -121.23 -0.003051    1.30   -119.94   
    32. D(H   4,N   3,Pt  0,N   6)    179.49  0.000220   -0.08    179.41   
    33. D(H   7,N   6,Pt  0,Cl  2)   -118.77 -0.002887    0.88   -117.89   
    34. D(H   9,N   6,Pt  0,N   3)   -178.12  0.000338   -0.17   -178.29   
    35. D(H   9,N   6,Pt  0,Cl  2)      1.88  0.000445   -0.48      1.40   
    36. D(H   8,N   6,Pt  0,N   3)    -58.09  0.002694   -1.13    -59.22   
    37. D(H   8,N   6,Pt  0,Cl  2)    121.91  0.002801   -1.44    120.47   
    38. D(H   7,N   6,Pt  0,N   3)     61.23 -0.002994    1.19     62.42   
    ----------------------------------------------------------------------------

         *************************************************************
         *                GEOMETRY OPTIMIZATION CYCLE   2            *
         *************************************************************
---------------------------------
CARTESIAN COORDINATES (ANGSTROEM)
---------------------------------
  Pt    -4.474963   -1.124055   -2.084991
  Cl    -6.705587   -0.827209   -2.481187
  Cl    -4.052527   -1.704781   -4.251902
  N     -4.902898   -0.568833   -0.081874
  H     -5.898120   -0.369516   -0.018664
  H     -4.389113    0.258489    0.198198
  N     -2.398101   -1.406695   -1.751284
  H     -2.223306   -2.147291   -1.081971
  H     -1.952971   -0.560293   -1.415822
  H     -1.969821   -1.663836   -2.636869
  H     -4.685837   -1.315762    0.568056

----------------------------
CARTESIAN COORDINATES (A.U.)
----------------------------
  NO LB      ZA    FRAG     MASS         X           Y           Z
   0 Pt   18.0000*   0   195.090   -8.456455   -2.124156   -3.940062
   1 Cl   17.0000    0    35.453  -12.671723   -1.563199   -4.688764
   2 Cl   17.0000    0    35.453   -7.658166   -3.221569   -8.034930
   3 N     7.0000    0    14.007   -9.265135   -1.074938   -0.154720
   4 H     1.0000    0     1.008  -11.145832   -0.698284   -0.035270
   5 H     1.0000    0     1.008   -8.294221    0.488473    0.374539
   6 N     7.0000    0    14.007   -4.531754   -2.658268   -3.309447
   7 H     1.0000    0     1.008   -4.201439   -4.057792   -2.044629
   8 H     1.0000    0     1.008   -3.690580   -1.058800   -2.675517
   9 H     1.0000    0     1.008   -3.722423   -3.144195   -4.982960
  10 H     1.0000    0     1.008   -8.854950   -2.486429    1.073469
* core charge reduced due to ECP

--------------------------------
INTERNAL COORDINATES (ANGSTROEM)
--------------------------------
 Pt     0   0   0     0.000000000000     0.00000000     0.00000000
 Cl     1   0   0     2.284900387206     0.00000000     0.00000000
 Cl     1   2   0     2.282804363556    92.81499418     0.00000000
 N      1   2   3     2.122234257389    86.14810207   179.69203897
 H      4   1   2     1.016950693242   107.89532441   359.46861680
 H      4   1   2     1.013349277171   111.85299435   240.08475082
 N      1   2   3     2.122405104283   179.04601928     3.07398468
 H      7   1   4     1.013418281673   111.71203668    62.43638899
 H      7   1   4     1.013445325501   111.75419789   300.76390782
 H      7   1   4     1.016762462758   107.99379009   181.70863849
 H      4   1   2     1.013620646392   111.66871516   118.38331245

---------------------------
INTERNAL COORDINATES (A.U.)
---------------------------
 Pt     0   0   0     0.000000000000     0.00000000     0.00000000
 Cl     1   0   0     4.317835975111     0.00000000     0.00000000
 Cl     1   2   0     4.313875064440    92.81499418     0.00000000
 N      1   2   3     4.010441538491    86.14810207   179.69203897
 H      4   1   2     1.921758301929   107.89532441   359.46861680
 H      4   1   2     1.914952611860   111.85299435   240.08475082
 N      1   2   3     4.010764392332   179.04601928     3.07398468
 H      7   1   4     1.915083011472   111.71203668    62.43638899
 H      7   1   4     1.915134116899   111.75419789   300.76390782
 H      7   1   4     1.921402597865   107.99379009   181.70863849
 H      4   1   2     1.915465425370   111.66871516   118.38331245



           ************************************************************
           *        Program running with 4 parallel MPI-processes     *
           *              working on a common directory               *
           ************************************************************
 One Electron integrals                  ... done
 Pre-screening matrix                    ... done


           ************************************************************
           *        Program running with 4 parallel MPI-processes     *
           *              working on a common directory               *
           ************************************************************

Diagonalization of the overlap matrix:
Smallest eigenvalue                        ... 2.780e-03
Time for diagonalization                   ...    0.005 sec
Threshold for overlap eigenvalues          ... 1.000e-08
Number of eigenvalues below threshold      ... 0
Time for construction of square roots      ...    0.003 sec
Total time needed                          ...    0.008 sec

-------------------
DFT GRID GENERATION
-------------------

General Integration Accuracy     IntAcc      ...  4.340
Radial Grid Type                 RadialGrid  ... Gauss-Chebyshev
Angular Grid (max. acc.)         AngularGrid ... Lebedev-194
Angular grid pruning method      GridPruning ... 3 (G Style)
Weight generation scheme         WeightScheme... Becke
Basis function cutoff            BFCut       ...    1.0000e-11
Integration weight cutoff        WCut        ...    1.0000e-14
Grids for H and He will be reduced by one unit

# of grid points (after initial pruning)     ...  29822 (   0.0 sec)
# of grid points (after weights+screening)   ...  28441 (   0.0 sec)
nearest neighbour list constructed           ...    0.0 sec
Grid point re-assignment to atoms done       ...    0.0 sec
Grid point division into batches done        ...    0.1 sec
Reduced shell lists constructed in    0.1 sec

Total number of grid points                  ...    28441
Total number of batches                      ...      452
Average number of points per batch           ...       62
Average number of grid points per atom       ...     2586
Average number of shells per batch           ...    47.34 (67.63%)
Average number of basis functions per batch  ...    99.76 (73.36%)
Average number of large shells per batch     ...    39.11 (82.62%)
Average number of large basis fcns per batch ...    84.68 (84.88%)
Maximum spatial batch extension              ...  24.80, 33.50, 24.63 au
Average spatial batch extension              ...   0.73,  0.86,  0.76 au

Time for grid setup =    0.137 sec

--------------
SCF ITERATIONS
--------------
ITER       Energy         Delta-E        Max-DP      RMS-DP      [F,P]     Damp
               ***  Starting incremental Fock matrix formation  ***
  0  -1153.0639684940   0.000000000000 0.00508861  0.00027109  0.4312077 0.7000
  1  -1153.0660558033  -0.002087309281 0.00388755  0.00025595  0.3020698 0.7000
  2  -1153.0675822545  -0.001526451176 0.00338246  0.00020321  0.2114733 0.7000
                               ***Turning on DIIS***
  3  -1153.0686697691  -0.001087514555 0.00284811  0.00015557  0.1480368 0.7000
  4  -1153.0694375779  -0.000767808869 0.00231018  0.00011742  0.1036243 0.7000
  5  -1153.0699761077  -0.000538529813 0.00613304  0.00029263  0.0725366 0.0000
  6  -1153.0712334515  -0.001257343803 0.00156108  0.00004298  0.0001376 0.0000
  7  -1153.0712346307  -0.000001179141 0.00007101  0.00000422  0.0001004 0.0000
  8  -1153.0712346456  -0.000000014944 0.00004296  0.00000224  0.0001103 0.0000
  9  -1153.0712346718  -0.000000026216 0.00001138  0.00000061  0.0000216 0.0000
                 **** Energy Check signals convergence ****

               *****************************************************
               *                     SUCCESS                       *
               *           SCF CONVERGED AFTER  10 CYCLES          *
               *****************************************************

Setting up the final grid:

General Integration Accuracy     IntAcc      ...  4.670
Radial Grid Type                 RadialGrid  ... Gauss-Chebyshev
Angular Grid (max. acc.)         AngularGrid ... Lebedev-302
Angular grid pruning method      GridPruning ... 3 (G Style)
Weight generation scheme         WeightScheme... Becke
Basis function cutoff            BFCut       ...    1.0000e-11
Integration weight cutoff        WCut        ...    1.0000e-14
Grids for H and He will be reduced by one unit

# of grid points (after initial pruning)     ...  57916 (   0.0 sec)
# of grid points (after weights+screening)   ...  54922 (   0.0 sec)
nearest neighbour list constructed           ...    0.0 sec
Grid point re-assignment to atoms done       ...    0.0 sec
Grid point division into batches done        ...    0.2 sec
Reduced shell lists constructed in    0.3 sec

Total number of grid points                  ...    54922
Total number of batches                      ...      863
Average number of points per batch           ...       63
Average number of grid points per atom       ...     4993
Average number of shells per batch           ...    45.81 (65.44%)
Average number of basis functions per batch  ...    96.58 (71.01%)
Average number of large shells per batch     ...    37.37 (81.57%)
Average number of large basis fcns per batch ...    80.75 (83.61%)
Maximum spatial batch extension              ...  22.98, 31.96, 22.82 au
Average spatial batch extension              ...   0.61,  0.70,  0.64 au

Final grid set up in    0.3 sec
Final integration                            ... done (   0.2 sec)
Change in XC energy                          ...     0.000885838
Integrated number of electrons               ...    71.999945420
Previous integrated no of electrons          ...    72.000111243
Total Energy       :        -1153.07034884 Eh          -31376.63935 eV
  Last Energy change         ...   -3.7671e-09  Tolerance :   1.0000e-08
  Last MAX-Density change    ...    6.2993e-06  Tolerance :   1.0000e-07
             **** THE GBW FILE WAS UPDATED (cisplatin.gbw) ****
             **** DENSITY FILE WAS UPDATED (cisplatin.scfp) ****
             **** ENERGY FILE WAS UPDATED (cisplatin.en.tmp) ****
             **** THE GBW FILE WAS UPDATED (cisplatin.gbw) ****
             **** DENSITY FILE WAS UPDATED (cisplatin.scfp) ****
Total SCF time: 0 days 0 hours 0 min 2 sec 


-------------------------------------------------------------------------------
                          DFT DISPERSION CORRECTION                            
                                                                               
                              DFTD3 V3.1  Rev 1                                
                          USING Becke-Johnson damping                          
-------------------------------------------------------------------------------
-------------------------   ----------------
Dispersion correction           -0.029127510
-------------------------   ----------------

------------------   -----------------
SRB correction            -0.025243889
------------------   -----------------

-------------------------   --------------------
FINAL SINGLE POINT ENERGY     -1153.124720236550
-------------------------   --------------------



           ************************************************************
           *        Program running with 4 parallel MPI-processes     *
           *              working on a common directory               *
           ************************************************************
------------------------------------------------------------------------------
                         ORCA SCF GRADIENT CALCULATION
------------------------------------------------------------------------------

Gradient of the Kohn-Sham DFT energy:
Kohn-Sham wavefunction type      ... RKS
Hartree-Fock exchange scaling    ...    0.000
Number of operators              ...    1
Number of atoms                  ...   11
Basis set dimensions             ...  136
Integral neglect threshold       ... 2.5e-11
Integral primitive cutoff        ... 2.5e-12

Nuclear repulsion gradient       ... done
One Electron Gradient            
  ECP gradient                   ... done
Pre-screening matrix             ... done
RI-J gradient                    ... done
Exchange-correlation gradient    ... done
Dispersion correction            ... done
SRB correction                   ... done

------------------
CARTESIAN GRADIENT
------------------

   1   Pt  :   -0.005844079   -0.001423411   -0.008735966
   2   Cl  :    0.004062872   -0.001166979   -0.001994751
   3   Cl  :   -0.003579483    0.001470913    0.003352749
   4   N   :   -0.005174077    0.002674083    0.003940795
   5   H   :    0.000263858    0.000360560    0.003004536
   6   H   :    0.002279663   -0.000248836   -0.000630095
   7   N   :    0.005807912   -0.002251106   -0.003256139
   8   H   :   -0.001297460    0.000302257    0.001831868
   9   H   :   -0.001158676    0.001010567    0.001479183
  10   H   :    0.002787052    0.000235599    0.001391331
  11   H   :    0.001852419   -0.000963648   -0.000383509

Difference to translation invariance:
           :   -0.0000000002   -0.0000000000   -0.0000000001

Norm of the cartesian gradient     ...    0.0172697981
RMS gradient                       ...    0.0030062860
MAX gradient                       ...    0.0087359659

-------
TIMINGS
-------

Total SCF gradient time            ...        1.574 sec

One electron gradient       ....       0.388 sec  ( 24.6%)
Prescreening matrices       ....       0.019 sec  (  1.2%)
RI-J Coulomb gradient       ....       0.207 sec  ( 13.1%)
XC gradient                 ....       0.770 sec  ( 48.9%)
------------------------------------------------------------------------------
                         ORCA GEOMETRY RELAXATION STEP
------------------------------------------------------------------------------

Reading the OPT-File                    .... done
Getting information on internals        .... done
Copying old internal coords+grads       .... done
Making the new internal coordinates     .... (new redundants).... done
Validating the new internal coordinates .... (new redundants).... done
Calculating the B-matrix                .... done
Calculating the G,G- and P matrices     .... done
Transforming gradient to internals      .... done
Projecting the internal gradient        .... done
Number of atoms                         ....  11
Number of internal coordinates          ....  38
Current Energy                          .... -1153.124720237 Eh
Current gradient norm                   ....     0.017269798 Eh/bohr
Maximum allowed component of the step   ....  0.300
Current trust radius                    ....  0.300
Updating the Hessian (BFGS)             .... done
Forming the augmented Hessian           .... done
Diagonalizing the augmented Hessian     .... done
Last element of RFO vector              ....  0.985533718
Lowest eigenvalues of augmented Hessian:
 -0.002755484  0.001725128  0.001725135  0.001725415  0.001762973
Length of the computed step             ....  0.171967196
The final length of the internal step   ....  0.171967196
Converting the step to cartesian space:
 Initial RMS(Int)=    0.0278967630
Transforming coordinates:
 Iter   0:  RMS(Cart)=    0.0717059761 RMS(Int)=    1.4346095191
 Iter   1:  RMS(Cart)=    0.0024185257 RMS(Int)=    0.0017593298
 Iter   2:  RMS(Cart)=    0.0000972919 RMS(Int)=    0.0000482546
 Iter   3:  RMS(Cart)=    0.0000062804 RMS(Int)=    0.0000053420
 Iter   4:  RMS(Cart)=    0.0000003002 RMS(Int)=    0.0000001784
 Iter   5:  RMS(Cart)=    0.0000000202 RMS(Int)=    0.0000000180
done
Storing new coordinates                 .... done

                                .--------------------.
          ----------------------|Geometry convergence|-------------------------
          Item                value                   Tolerance       Converged
          ---------------------------------------------------------------------
          Energy change      -0.0052851232            0.0000010000      NO
          RMS gradient        0.0031458540            0.0000300000      NO
          MAX gradient        0.0063586794            0.0001000000      NO
          RMS step            0.0278967630            0.0006000000      NO
          MAX step            0.0630189952            0.0010000000      NO
          ........................................................
          Max(Bonds)      0.0232      Max(Angles)    2.88
          Max(Dihed)        3.61      Max(Improp)    0.00
          ---------------------------------------------------------------------

The optimization has not yet converged - more geometry cycles are needed


    ---------------------------------------------------------------------------
                         Redundant Internal Coordinates
                            (Angstroem and degrees)

        Definition                    Value    dE/dq     Step     New-Value
    ----------------------------------------------------------------------------
     1. B(Cl  1,Pt  0)                2.2849 -0.003775  0.0168    2.3017   
     2. B(Cl  2,Pt  0)                2.2828 -0.004216  0.0198    2.3026   
     3. B(N   3,Pt  0)                2.1222  0.006220 -0.0223    2.0999   
     4. B(H   4,N   3)                1.0170  0.000005  0.0005    1.0175   
     5. B(H   5,N   3)                1.0133  0.000769 -0.0008    1.0125   
     6. B(N   6,Pt  0)                2.1224  0.006341 -0.0232    2.0992   
     7. B(H   7,N   6)                1.0134  0.000770 -0.0008    1.0126   
     8. B(H   8,N   6)                1.0134  0.000829 -0.0009    1.0125   
     9. B(H   9,N   6)                1.0168 -0.000103  0.0006    1.0174   
    10. B(H  10,N   3)                1.0136  0.000862 -0.0009    1.0127   
    11. A(N   3,Pt  0,N   6)           94.80 -0.006152    2.88     97.69   
    12. A(Cl  2,Pt  0,N   6)           86.23  0.006359   -2.76     83.47   
    13. A(Cl  1,Pt  0,Cl  2)           92.81 -0.006093    2.26     95.08   
    14. A(Cl  1,Pt  0,N   3)           86.15  0.005885   -2.39     83.76   
    15. A(Pt  0,N   3,H   4)          107.90  0.005518   -1.89    106.01   
    16. A(Pt  0,N   3,H  10)          111.67 -0.002654    1.12    112.79   
    17. A(H   4,N   3,H  10)          108.31 -0.000432   -0.33    107.98   
    18. A(H   5,N   3,H  10)          108.41  0.000462    0.52    108.94   
    19. A(H   4,N   3,H   5)          108.60 -0.000096   -0.52    108.08   
    20. A(Pt  0,N   3,H   5)          111.85 -0.002684    1.09    112.95   
    21. A(H   8,N   6,H   9)          108.33 -0.000497   -0.31    108.02   
    22. A(H   7,N   6,H   9)          108.53 -0.000156   -0.52    108.01   
    23. A(Pt  0,N   6,H   9)          107.99  0.005630   -1.88    106.12   
    24. A(H   7,N   6,H   8)          108.42  0.000431    0.53    108.95   
    25. A(Pt  0,N   6,H   8)          111.75 -0.002765    1.16    112.92   
    26. A(Pt  0,N   6,H   7)          111.71 -0.002533    1.01    112.72   
    27. D(H  10,N   3,Pt  0,Cl  1)    118.38  0.001580   -1.48    116.90   
    28. D(H   5,N   3,Pt  0,N   6)     60.03 -0.001736    1.76     61.79   
    29. D(H   4,N   3,Pt  0,Cl  1)     -0.53  0.000182   -0.57     -1.10   
    30. D(H  10,N   3,Pt  0,N   6)    -61.67  0.001486   -0.32    -62.00   
    31. D(H   5,N   3,Pt  0,Cl  1)   -119.92 -0.001643    0.60   -119.31   
    32. D(H   4,N   3,Pt  0,N   6)    179.41  0.000088    0.59    180.00   
    33. D(H   7,N   6,Pt  0,Cl  2)   -117.87 -0.001820    2.44   -115.43   
    34. D(H   9,N   6,Pt  0,N   3)   -178.29  0.000396   -2.75   -181.05   
    35. D(H   9,N   6,Pt  0,Cl  2)      1.40  0.000074    1.22      2.62   
    36. D(H   8,N   6,Pt  0,N   3)    -59.24  0.001731   -3.61    -62.85   
    37. D(H   8,N   6,Pt  0,Cl  2)    120.45  0.001408    0.36    120.82   
    38. D(H   7,N   6,Pt  0,N   3)     62.44 -0.001498   -1.53     60.90   
    ----------------------------------------------------------------------------

         *************************************************************
         *                GEOMETRY OPTIMIZATION CYCLE   3            *
         *************************************************************
---------------------------------
CARTESIAN COORDINATES (ANGSTROEM)
---------------------------------
  Pt    -4.442190   -1.077346   -2.056449
  Cl    -6.696537   -0.781063   -2.413887
  Cl    -3.984301   -1.764573   -4.205869
  N     -4.923600   -0.572994   -0.075693
  H     -5.923838   -0.386538   -0.068592
  H     -4.446139    0.259917    0.246029
  N     -2.387176   -1.397954   -1.772362
  H     -2.195609   -2.143461   -1.114399
  H     -1.896178   -0.564067   -1.474358
  H     -2.016409   -1.674944   -2.678374
  H     -4.741267   -1.326758    0.575642

----------------------------
CARTESIAN COORDINATES (A.U.)
----------------------------
  NO LB      ZA    FRAG     MASS         X           Y           Z
   0 Pt   18.0000*   0   195.090   -8.394522   -2.035889   -3.886125
   1 Cl   17.0000    0    35.453  -12.654620   -1.475996   -4.561586
   2 Cl   17.0000    0    35.453   -7.529237   -3.334559   -7.947940
   3 N     7.0000    0    14.007   -9.304256   -1.082802   -0.143039
   4 H     1.0000    0     1.008  -11.194432   -0.730452   -0.129620
   5 H     1.0000    0     1.008   -8.401985    0.491172    0.464928
   6 N     7.0000    0    14.007   -4.511110   -2.641750   -3.349279
   7 H     1.0000    0     1.008   -4.149099   -4.050555   -2.105909
   8 H     1.0000    0     1.008   -3.583257   -1.065932   -2.786133
   9 H     1.0000    0     1.008   -3.810461   -3.165186   -5.061392
  10 H     1.0000    0     1.008   -8.959696   -2.507209    1.087805
* core charge reduced due to ECP

--------------------------------
INTERNAL COORDINATES (ANGSTROEM)
--------------------------------
 Pt     0   0   0     0.000000000000     0.00000000     0.00000000
 Cl     1   0   0     2.301656901778     0.00000000     0.00000000
 Cl     1   2   0     2.302595995885    95.06145042     0.00000000
 N      1   2   3     2.099885963761    83.74378122   183.63369803
 H      4   1   2     1.017492953697   106.01945764   358.89900147
 H      4   1   2     1.012529215563   112.90365456   240.72799464
 N      1   2   3     2.099184418879   178.21087832   325.88160165
 H      7   1   4     1.012617652014   112.67951253    60.93948300
 H      7   1   4     1.012547869243   112.87729067   297.11223681
 H      7   1   4     1.017373373940   106.13082129   178.95872615
 H      4   1   2     1.012739724146   112.74418053   116.85708640

---------------------------
INTERNAL COORDINATES (A.U.)
---------------------------
 Pt     0   0   0     0.000000000000     0.00000000     0.00000000
 Cl     1   0   0     4.349501198610     0.00000000     0.00000000
 Cl     1   2   0     4.351275829286    95.06145042     0.00000000
 N      1   2   3     3.968209383973    83.74378122   183.63369803
 H      4   1   2     1.922783025682   106.01945764   358.89900147
 H      4   1   2     1.913402920009   112.90365456   240.72799464
 N      1   2   3     3.966883656276   178.21087832   325.88160165
 H      7   1   4     1.913570040681   112.67951253    60.93948300
 H      7   1   4     1.913438170354   112.87729067   297.11223681
 H      7   1   4     1.922557052690   106.13082129   178.95872615
 H      4   1   2     1.913800723579   112.74418053   116.85708640



           ************************************************************
[...]
     17      -0.276686  -0.196428  -0.103038  -0.094775   0.254090   0.008250
     18      -0.026923  -0.002194   0.016221  -0.113420  -0.038976   0.051874
     19      -0.154838  -0.010566   0.082197   0.029353  -0.237045  -0.070301
     20       0.034212   0.005145  -0.024409   0.113085   0.054437  -0.257136
     21      -0.170022   0.052339   0.013660  -0.212206  -0.241295   0.134483
     22      -0.405787   0.255372  -0.194981   0.004530  -0.278384  -0.085752
     23      -0.204975   0.293198  -0.343906   0.120790   0.078601  -0.306159
     24       0.047069   0.007046  -0.041205  -0.171254   0.138651   0.130837
     25      -0.308177   0.105620  -0.013550   0.028651  -0.349090  -0.093590
     26       0.366785  -0.369765   0.378117   0.227042   0.064874  -0.338274
     27       0.017724  -0.060347   0.081136   0.027488  -0.057854  -0.140157
     28       0.112734  -0.363075   0.485060   0.065165  -0.332805  -0.070698
     29      -0.030295   0.090403  -0.122332   0.144559   0.076737  -0.325464
     30       0.288767   0.378868   0.318636   0.271862   0.008648  -0.386614
     31       0.352212   0.165434   0.043573  -0.106751  -0.376835   0.063483
     32       0.115522   0.107851   0.069138  -0.107873  -0.097619  -0.000836
                 12         13         14         15         16         17    
      0       0.042952   0.117096  -0.097274  -0.030452   0.021996  -0.000010
      1      -0.014963  -0.038345  -0.014024   0.010474   0.002831  -0.000006
      2      -0.029711  -0.079417  -0.137472   0.021907   0.028754   0.000071
      3      -0.001017  -0.636166   0.638091  -0.004424   0.030028   0.000433
      4       0.028507   0.080288  -0.071935   0.003019  -0.004743   0.002481
      5       0.117229  -0.136817   0.175433   0.009426   0.002718  -0.000603
      6      -0.118154  -0.100867  -0.062480  -0.011278  -0.007433  -0.000400
      7       0.010767   0.163383   0.156375   0.002775   0.007815  -0.002453
      8      -0.041821   0.636109   0.634619   0.003066   0.027770   0.000551
      9      -0.221210   0.104211  -0.114338   0.046307   0.068188  -0.013034
     10       0.022055  -0.036142   0.014542  -0.090674  -0.089051  -0.070234
     11      -0.077235  -0.061124  -0.010305  -0.353643  -0.330229   0.016332
     12      -0.222009   0.109044  -0.113173   0.038213   0.057357   0.028296
     13      -0.025325  -0.051462   0.022291  -0.048577  -0.085970   0.159529
     14      -0.316811  -0.117183   0.026214  -0.178269  -0.326204  -0.035688
     15      -0.332070   0.057704  -0.106195   0.125310   0.056086   0.183454
     16       0.054100  -0.026037   0.007748  -0.113995  -0.083897  -0.001216
     17      -0.008143  -0.024141  -0.007466  -0.393145  -0.318513  -0.446329
     18      -0.010022   0.096114   0.027659   0.328509  -0.367640   0.012976
     19       0.063165  -0.034158  -0.029864  -0.039321   0.050021   0.070358
     20       0.250944  -0.073492  -0.105173   0.081143  -0.063835  -0.017660
     21      -0.123879   0.046369   0.023602   0.396401  -0.357374  -0.484522
     22       0.090483  -0.024347  -0.022722  -0.064996   0.047984  -0.044199
     23       0.323808  -0.043750  -0.097404   0.023003  -0.065291   0.026518
     24      -0.122037   0.049072   0.023535   0.393258  -0.355552   0.434540
     25       0.097001  -0.013427  -0.031761  -0.062972   0.047145  -0.204662
     26       0.359528  -0.046975  -0.096159   0.021647  -0.066801   0.035860
     27       0.237167   0.152157   0.061966   0.158651  -0.346722  -0.023020
     28       0.061049  -0.040815  -0.033383  -0.022507   0.044431  -0.161370
     29       0.341011  -0.057509  -0.090648   0.024456  -0.067631   0.039205
     30      -0.345522   0.061762  -0.103786   0.125844   0.055423  -0.137258
     31       0.053194  -0.016013   0.015069  -0.111509  -0.083369   0.250348
     32      -0.015168  -0.030322  -0.014071  -0.390339  -0.317177   0.386989
                 18         19         20         21         22         23    
      0       0.001760   0.007397   0.002703  -0.000701   0.000039  -0.000413
      1       0.006912  -0.002963   0.000394   0.000230   0.000017   0.000143
      2      -0.002005  -0.004912   0.003713   0.000458   0.000116   0.000289
      3      -0.000946  -0.002113  -0.000834  -0.000549  -0.000904   0.000149
      4      -0.004597   0.001836   0.000104  -0.000064   0.000272  -0.000082
      5       0.001451   0.004778  -0.000245  -0.000705   0.000465  -0.000272
      6      -0.001226  -0.005430  -0.000014   0.000419   0.000811   0.000329
      7      -0.004663   0.001355  -0.000211   0.000107  -0.000277  -0.000056
      8       0.001078   0.000111  -0.000809   0.000822  -0.000577  -0.000041
      9      -0.017232  -0.080091  -0.073722  -0.022647   0.022796  -0.036675
     10      -0.067051   0.019298   0.009278   0.021227  -0.019988   0.002791
     11       0.016332   0.002240  -0.018818   0.073345  -0.067904  -0.018706
     12       0.026273  -0.076295  -0.070520  -0.004923   0.007501  -0.032247
     13       0.179111   0.122428   0.133329  -0.105208   0.092094  -0.047606
     14      -0.009360   0.519604   0.525336  -0.453375   0.398745  -0.201529
     15       0.197908   0.230374   0.242235   0.219241  -0.210511   0.248576
     16      -0.004444  -0.090452  -0.096108   0.016202  -0.011739  -0.248765
     17      -0.455494  -0.143546  -0.180599  -0.334257   0.311883   0.282372
     18      -0.014323  -0.031570   0.008125  -0.071805  -0.079817   0.005066
     19      -0.066066   0.027673  -0.019176   0.011534   0.013268   0.010507
     20       0.020732   0.072406  -0.072389  -0.005614  -0.004385   0.044231
     21       0.491851   0.223169  -0.255159   0.352992   0.394560  -0.168307
     22       0.040541  -0.093249   0.091345   0.038667   0.038655  -0.345896
     23      -0.035734  -0.156887   0.149644  -0.089168  -0.104540  -0.321811
     24      -0.415075   0.287814  -0.266519   0.313218   0.351133  -0.077435
     25       0.199959  -0.090452   0.074885  -0.186613  -0.206798   0.206168
     26      -0.043933  -0.162606   0.156607  -0.034497  -0.045000  -0.442139
     27      -0.003109  -0.533512   0.519402   0.397596   0.414883   0.200709
     28       0.174739   0.051991  -0.059718  -0.034535  -0.035298  -0.019479
     29      -0.047986  -0.118801   0.123389   0.154838   0.165174   0.115040
     30      -0.123599   0.253823   0.248703   0.174505  -0.169536   0.331078
     31       0.247802  -0.091711  -0.078712  -0.229758   0.213455   0.247992
     32       0.376497  -0.196306  -0.188529  -0.277444   0.259799   0.168357
                 24         25         26         27         28         29    
      0      -0.000158   0.000002  -0.000038   0.000116  -0.000026   0.000008
      1      -0.000015   0.000002  -0.000156  -0.000033  -0.000015  -0.000003
      2      -0.000180   0.000006   0.000044  -0.000055  -0.000085  -0.000005
      3       0.000083   0.000084  -0.000049  -0.000149   0.000009  -0.000019
      4      -0.000034   0.000478  -0.000276  -0.000007  -0.000058  -0.000008
      5      -0.000115  -0.000114   0.000058  -0.000143  -0.000236  -0.000052
      6      -0.000107  -0.000088  -0.000045   0.000175  -0.000172   0.000064
      7       0.000016  -0.000479  -0.000284   0.000014   0.000034  -0.000000
      8       0.000030   0.000105   0.000065   0.000204   0.000009   0.000054
      9      -0.040614   0.008526  -0.008136   0.025283   0.040172   0.034021
     10       0.003514   0.043243  -0.042527  -0.006436  -0.010153  -0.000115
     11      -0.020243  -0.009761   0.009711  -0.008004  -0.012347   0.025633
     12      -0.036910  -0.094067   0.092677  -0.469552  -0.742521  -0.247802
     13      -0.055003  -0.524428   0.515766   0.078194   0.123646   0.044215
     14      -0.218330   0.126625  -0.123124  -0.027485  -0.043518  -0.001847
     15       0.279218   0.289982  -0.291042   0.082257   0.127843  -0.167660
     16      -0.276630  -0.111918   0.112662   0.142863   0.225510  -0.323695
     17       0.312939  -0.037470   0.039092   0.043371   0.069294  -0.106520
     18      -0.004138  -0.007563  -0.007623   0.026440  -0.016610  -0.016655
     19      -0.009799  -0.042530  -0.042815  -0.012322   0.007821  -0.009844
     20      -0.039628   0.011186   0.011012  -0.031936   0.020420  -0.054277
     21       0.150324  -0.145122  -0.150500  -0.042743   0.027929   0.101397
     22       0.312992   0.130751   0.134133   0.197917  -0.125131  -0.388047
     23       0.293196   0.237510   0.243097  -0.174978   0.109568   0.323334
     24       0.070328   0.158549   0.164998  -0.117834   0.075281   0.246228
     25      -0.185504  -0.032318  -0.035867  -0.227796   0.143313   0.432241
     26       0.398347  -0.279887  -0.280961  -0.073615   0.045684   0.127741
     27      -0.176430   0.097511   0.096889  -0.227415   0.144065  -0.118314
     28       0.020391   0.518936   0.521731   0.204178  -0.129376   0.093023
     29      -0.103532  -0.120500  -0.121760   0.689796  -0.437059   0.303117
     30       0.366842  -0.320524   0.316694   0.033266   0.050662  -0.058262
     31       0.274529   0.008755  -0.012696  -0.128564  -0.201782   0.281484
     32       0.187102   0.053131  -0.057172   0.106335   0.168298  -0.246824
                  30         31         32    
      0      -0.000001   0.000001  -0.000001
      1      -0.000001   0.000005  -0.000005
      2      -0.000004  -0.000001   0.000001
      3      -0.000032  -0.000002  -0.000003
      4      -0.000017  -0.000010  -0.000015
      5      -0.000093   0.000002   0.000003
      6      -0.000061   0.000002   0.000002
      7       0.000000   0.000013   0.000010
      8      -0.000049  -0.000003  -0.000002
      9       0.046139  -0.013888   0.000244
     10      -0.000103  -0.077332   0.001330
     11       0.034845   0.018059  -0.000307
     12      -0.333870  -0.003710   0.000008
     13       0.059546  -0.020161   0.000391
     14      -0.002616   0.004718  -0.000093
     15      -0.227507   0.322055  -0.005766
     16      -0.439033   0.585865  -0.010327
     17      -0.143933   0.218795  -0.003776
     18       0.012382   0.000254   0.013749
     19       0.007270   0.001388   0.077308
     20       0.040184  -0.000315  -0.018281
     21      -0.074598   0.002761   0.153402
     22       0.287077  -0.008847  -0.512002
     23      -0.239086   0.007856   0.457236
     24      -0.181680  -0.006287  -0.347831
     25      -0.319753  -0.010285  -0.580943
     26      -0.094340  -0.003486  -0.198803
     27       0.086890   0.000071   0.003619
     28      -0.068379   0.000322   0.020189
     29      -0.222883  -0.000100  -0.004794
     30      -0.078980  -0.125612   0.002278
     31       0.381650   0.507292  -0.008943
     32      -0.333918  -0.474130   0.008246


-----------
IR SPECTRUM
-----------

 Mode    freq (cm**-1)   T**2         TX         TY         TZ
-------------------------------------------------------------------
   6:       114.54    0.006780  ( -0.038186  -0.055832  -0.046947)
   7:       130.17    0.288483  (  0.114046   0.518202  -0.083332)
   8:       136.06    0.015978  ( -0.074824  -0.007384  -0.101609)
   9:       150.58    0.144786  (  0.134175  -0.188566   0.302036)
  10:       159.34   15.639834  ( -0.681047  -3.788851   0.905879)
  11:       221.89   25.319038  ( -2.903224  -0.440026  -4.086160)
  12:       226.92    0.782895  ( -0.574310   0.253691   0.623461)
  13:       331.08   26.587889  (  4.117520  -1.380044  -2.780179)
  14:       342.87   24.515948  ( -2.864805  -0.437727  -4.014627)
  15:       435.69    8.416704  ( -2.302090   0.777275   1.585222)
  16:       446.21    1.246231  (  0.719205   0.069633   0.850956)
  17:       728.99    0.003529  (  0.035258  -0.004763   0.047574)
  18:       749.19   12.272532  (  0.613136   3.344791  -0.842001)
  19:       759.58    0.322499  (  0.323481  -0.361630  -0.295097)
  20:       795.39   71.068397  (  4.827615   0.752785   6.869923)
  21:      1283.14  137.895099  (  9.183770  -3.194218  -6.584105)
  22:      1290.79   80.104424  (  5.524448   0.662996   7.010373)
  23:      1664.87   37.889159  (  4.788904  -1.787464  -3.429363)
  24:      1672.75   16.175688  (  2.560267   0.281474   3.088931)
  25:      1696.31    0.019360  ( -0.061595  -0.058384  -0.110261)
  26:      1703.55   39.429096  (  1.145898   5.996454  -1.469200)
  27:      3336.84    4.803065  (  0.424767   0.421907   2.108230)
  28:      3337.80   78.752787  ( -5.235359  -0.734939  -7.127669)
  29:      3475.23    4.152063  ( -0.998066   0.579853   1.679196)
  30:      3475.89   33.333894  ( -3.523635  -0.435800  -4.552798)
  31:      3529.81   16.416007  (  0.697170   3.887802  -0.902748)
  32:      3529.96   17.605848  ( -0.708961  -4.026272   0.944645)

The first frequency considered to be a vibration is 6
The total number of vibrations considered is 27


--------------------------
THERMOCHEMISTRY AT 298.15K
--------------------------

Temperature         ... 298.15 K
Pressure            ... 1.00 atm
Total Mass          ... 300.06 AMU

Throughout the following assumptions are being made:
  (1) The electronic state is orbitally nondegenerate
  (2) There are no thermally accessible electronically excited states
  (3) Hindered rotations indicated by low frequency modes are not
      treated as such but are treated as vibrations and this may
      cause some error
  (4) All equations used are the standard statistical mechanics
      equations for an ideal gas
  (5) All vibrations are strictly harmonic

freq.     114.54  E(vib)   ...       0.44 
freq.     130.17  E(vib)   ...       0.43 
freq.     136.06  E(vib)   ...       0.42 
freq.     150.58  E(vib)   ...       0.40 
freq.     159.34  E(vib)   ...       0.39 
freq.     221.89  E(vib)   ...       0.33 
freq.     226.92  E(vib)   ...       0.33 
freq.     331.08  E(vib)   ...       0.24 
freq.     342.87  E(vib)   ...       0.23 
freq.     435.69  E(vib)   ...       0.17 
freq.     446.21  E(vib)   ...       0.17 
freq.     728.99  E(vib)   ...       0.06 
freq.     749.19  E(vib)   ...       0.06 
freq.     759.58  E(vib)   ...       0.06 
freq.     795.39  E(vib)   ...       0.05 
freq.    1283.14  E(vib)   ...       0.01 
freq.    1290.79  E(vib)   ...       0.01 
freq.    1664.87  E(vib)   ...       0.00 
freq.    1672.75  E(vib)   ...       0.00 
freq.    1696.31  E(vib)   ...       0.00 
freq.    1703.55  E(vib)   ...       0.00 
freq.    3336.84  E(vib)   ...       0.00 
freq.    3337.80  E(vib)   ...       0.00 
freq.    3475.23  E(vib)   ...       0.00 
freq.    3475.89  E(vib)   ...       0.00 
freq.    3529.81  E(vib)   ...       0.00 
freq.    3529.96  E(vib)   ...       0.00 

------------
INNER ENERGY
------------

The inner energy is: U= E(el) + E(ZPE) + E(vib) + E(rot) + E(trans)
    E(el)   - is the total energy from the electronic structure calculation
              = E(kin-el) + E(nuc-el) + E(el-el) + E(nuc-nuc)
    E(ZPE)  - the the zero temperature vibrational energy from the frequency calculation
    E(vib)  - the the finite temperature correction to E(ZPE) due to population
              of excited vibrational states
    E(rot)  - is the rotational thermal energy
    E(trans)- is the translational thermal energy

Summary of contributions to the inner energy U:
Electronic energy                ...  -1153.12702287 Eh
Zero point energy                ...      0.08138862 Eh      51.07 kcal/mol
Thermal vibrational correction   ...      0.00606482 Eh       3.81 kcal/mol
Thermal rotational correction    ...      0.00141627 Eh       0.89 kcal/mol
Thermal translational correction ...      0.00141627 Eh       0.89 kcal/mol
-----------------------------------------------------------------------
Total thermal energy                  -1153.03673689 Eh


Summary of corrections to the electronic energy:
(perhaps to be used in another calculation)
Total thermal correction                  0.00889736 Eh       5.58 kcal/mol
Non-thermal (ZPE) correction              0.08138862 Eh      51.07 kcal/mol
-----------------------------------------------------------------------
Total correction                          0.09028598 Eh      56.66 kcal/mol


--------
ENTHALPY
--------

The enthalpy is H = U + kB*T
                kB is Boltzmann's constant
Total free energy                 ...  -1153.03673689 Eh 
Thermal Enthalpy correction       ...      0.00094421 Eh       0.59 kcal/mol
-----------------------------------------------------------------------
Total Enthalpy                    ...  -1153.03579268 Eh


Note: Only C1 symmetry has been detected, increase convergence thresholds 
      if your molecule has a higher symmetry. Symmetry factor of 1.0 is   
      used for the rotational entropy correction. 
 

Note: Rotational entropy computed according to Herzberg 
Infrared and Raman Spectra, Chapter V,1, Van Nostrand Reinhold, 1945 
Point Group:  C1, Symmetry Number:   1  
Rotational constants in cm-1:     0.072871     0.056180     0.032053 

Vibrational entropy computed according to the QRRHO of S. Grimme
Chem.Eur.J. 2012 18 9955


-------
ENTROPY
-------

The entropy contributions are T*S = T*(S(el)+S(vib)+S(rot)+S(trans))
     S(el)   - electronic entropy
     S(vib)  - vibrational entropy
     S(rot)  - rotational entropy
     S(trans)- translational entropy
The entropies will be listed as mutliplied by the temperature to get
units of energy

Electronic entropy                ...      0.00000000 Eh      0.00 kcal/mol
Vibrational entropy               ...      0.01085779 Eh      6.81 kcal/mol
Rotational entropy                ...      0.01373066 Eh      8.62 kcal/mol
Translational entropy             ...      0.02042745 Eh     12.82 kcal/mol
-----------------------------------------------------------------------
Final entropy term                ...      0.04501590 Eh     28.25 kcal/mol

In case the symmetry of your molecule has not been determined correctly
or in case you have a reason to use a different symmetry number we print 
out the resulting rotational entropy values for sn=1,12 :
 --------------------------------------------------------
|  sn= 1 | S(rot)=       0.01373066 Eh      8.62 kcal/mol|
|  sn= 2 | S(rot)=       0.01307620 Eh      8.21 kcal/mol|
|  sn= 3 | S(rot)=       0.01269337 Eh      7.97 kcal/mol|
|  sn= 4 | S(rot)=       0.01242175 Eh      7.79 kcal/mol|
|  sn= 5 | S(rot)=       0.01221106 Eh      7.66 kcal/mol|
|  sn= 6 | S(rot)=       0.01203891 Eh      7.55 kcal/mol|
|  sn= 7 | S(rot)=       0.01189337 Eh      7.46 kcal/mol|
|  sn= 8 | S(rot)=       0.01176729 Eh      7.38 kcal/mol|
|  sn= 9 | S(rot)=       0.01165608 Eh      7.31 kcal/mol|
|  sn=10 | S(rot)=       0.01155660 Eh      7.25 kcal/mol|
|  sn=11 | S(rot)=       0.01146661 Eh      7.20 kcal/mol|
|  sn=12 | S(rot)=       0.01138446 Eh      7.14 kcal/mol|
 --------------------------------------------------------


-------------------
GIBBS FREE ENERGY
-------------------

The Gibbs free energy is G = H - T*S

Total enthalpy                    ...  -1153.03579268 Eh 
Total entropy correction          ...     -0.04501590 Eh    -28.25 kcal/mol
-----------------------------------------------------------------------
Final Gibbs free energy         ...  -1153.08080858 Eh

For completeness - the Gibbs free energy minus the electronic energy
G-E(el)                           ...      0.04621429 Eh     29.00 kcal/mol


Timings for individual modules:

Sum of individual times         ...      117.529 sec (=   1.959 min)
GTO integral calculation        ...        6.522 sec (=   0.109 min)   5.5 %
SCF iterations                  ...       42.120 sec (=   0.702 min)  35.8 %
SCF Gradient evaluation         ...       22.168 sec (=   0.369 min)  18.9 %
Geometry relaxation             ...        0.519 sec (=   0.009 min)   0.4 %
Analytical frequency calculation...       46.200 sec (=   0.770 min)  39.3 %
                             ****ORCA TERMINATED NORMALLY****
TOTAL RUN TIME: 0 days 0 hours 1 minutes 59 seconds 175 msec
