
                                 *****************
                                 * O   R   C   A *
                                 *****************

           --- An Ab Initio, DFT and Semiempirical electronic structure package ---

                  #######################################################
                  #                        -***-                        #
                  #          Department of theory and spectroscopy      #
                  #               Directorship: Frank Neese             #
                  #        Max Planck Institute fuer Kohlenforschung    #
                  #                Kaiser Wilhelm Platz 1               #
                  #                 D-45470 Muelheim/Ruhr               #
                  #                      Germany                        #
                  #                                                     #
                  #                  All rights reserved                #
                  #                        -***-                        #
                  #######################################################


                         Program Version 4.2.1 -  RELEASE  -


 With contributions from (in alphabetic order):
   Daniel Aravena         : Magnetic Suceptibility
   Michael Atanasov       : Ab Initio Ligand Field Theory (pilot matlab implementation)
   Alexander A. Auer      : GIAO ZORA, VPT2
   Ute Becker             : Parallelization
   Giovanni Bistoni       : ED, misc. LED, open-shell LED, HFLD
   Martin Brehm           : Molecular dynamics
   Dmytro Bykov           : SCF Hessian
   Vijay G. Chilkuri      : MRCI spin determinant printing, contributions to CSF-ICE
   Dipayan Datta          : RHF DLPNO-CCSD density
   Achintya Kumar Dutta   : EOM-CC, STEOM-CC
   Dmitry Ganyushin       : Spin-Orbit,Spin-Spin,Magnetic field MRCI
   Miquel Garcia          : C-PCM Hessian, Gaussian charge scheme
   Yang Guo               : DLPNO-NEVPT2, CIM, IAO-localization
   Andreas Hansen         : Spin unrestricted coupled pair/coupled cluster methods
   Benjamin Helmich-Paris : CASSCF linear response (MC-RPA)
   Lee Huntington         : MR-EOM, pCC
   Robert Izsak           : Overlap fitted RIJCOSX, COSX-SCS-MP3, EOM
   Christian Kollmar      : KDIIS, OOCD, Brueckner-CCSD(T), CCSD density
   Simone Kossmann        : Meta GGA functionals, TD-DFT gradient, OOMP2, MP2 Hessian
   Martin Krupicka        : AUTO-CI
   Lucas Lang             : DCDCAS
   Dagmar Lenk            : GEPOL surface, SMD
   Dimitrios Liakos       : Extrapolation schemes; Compound Job, initial MDCI parallelization
   Dimitrios Manganas     : Further ROCIS development; embedding schemes
   Dimitrios Pantazis     : SARC Basis sets
   Taras Petrenko         : DFT Hessian,TD-DFT gradient, ASA, ECA, R-Raman, ABS, FL, XAS/XES, NRVS
   Peter Pinski           : DLPNO-MP2, DLPNO-MP2 Gradient
   Christoph Reimann      : Effective Core Potentials
   Marius Retegan         : Local ZFS, SOC
   Christoph Riplinger    : Optimizer, TS searches, QM/MM, DLPNO-CCSD(T), (RO)-DLPNO pert. Triples
   Tobias Risthaus        : Range-separated hybrids, TD-DFT gradient, RPA, STAB
   Michael Roemelt        : Original ROCIS implementation
   Masaaki Saitow         : Open-shell DLPNO-CCSD energy and density
   Barbara Sandhoefer     : DKH picture change effects
   Avijit Sen             : IP-ROCIS
   Kantharuban Sivalingam : CASSCF convergence, NEVPT2, FIC-MRCI
   Bernardo de Souza      : ESD, SOC TD-DFT
   Georgi Stoychev        : AutoAux, RI-MP2 NMR
   Willem Van den Heuvel  : Paramagnetic NMR
   Boris Wezisla          : Elementary symmetry handling
   Frank Wennmohs         : Technical directorship


 We gratefully acknowledge several colleagues who have allowed us to
 interface, adapt or use parts of their codes:
   Stefan Grimme, W. Hujo, H. Kruse,             : VdW corrections, initial TS optimization,
                  C. Bannwarth                     DFT functionals, gCP, sTDA/sTD-DF
   Ed Valeev, F. Pavosevic, A. Kumar             : LibInt (2-el integral package), F12 methods
   Garnet Chan, S. Sharma, J. Yang, R. Olivares  : DMRG
   Ulf Ekstrom                                   : XCFun DFT Library
   Mihaly Kallay                                 : mrcc  (arbitrary order and MRCC methods)
   Andreas Klamt, Michael Diedenhofen            : otool_cosmo (COSMO solvation model)
   Jiri Pittner, Ondrej Demel                    : Mk-CCSD
   Frank Weinhold                                : gennbo (NPA and NBO analysis)
   Christopher J. Cramer and Donald G. Truhlar   : smd solvation model
   Lars Goerigk                                  : TD-DFT with DH, B97 family of functionals
   V. Asgeirsson, H. Jonsson                     : NEB implementation
   FAccTs GmbH                                   : IRC, NEB, NEB-TS, Multilevel, MM, QM/MM, CI optimization
   S Lehtola, MJT Oliveira, MAL Marques          : LibXC Library


 Your calculation uses the libint2 library for the computation of 2-el integrals
 For citations please refer to: http://libint.valeyev.net

 Your ORCA version has been built with support for libXC version: 4.2.3
 For citations please refer to: https://tddft.org/programs/libxc/

 This ORCA versions uses:
   CBLAS   interface :  Fast vector & matrix operations
   LAPACKE interface :  Fast linear algebra routines
   SCALAPACK package :  Parallel linear algebra routines


Your calculation utilizes the geometrical counterpoise correction gCP
Please cite in your paper:
H.Kruse, S. Grimme J.Chem.Phys., 136, (2012), 154101 
   

Your calculation utilizes the atom-pairwise dispersion correction
based on tight binding partial charges (D4)
Cite in your paper:
E.Caldeweyher, C.Bannwarth, S.Grimme, J.Chem.Phys., (2017), 147, 034112.
E.Caldeweyher, S.Ehlert, A.Hansen, H.Neugebauer, S.Grimme, J.Chem.Phys., (2018), in progress.
   

----- Orbital basis set information -----
Your calculation utilizes the basis: def2-SVP
   F. Weigend and R. Ahlrichs, Phys. Chem. Chem. Phys. 7, 3297 (2005).

----- AuxJ basis set information -----
Your calculation utilizes the auxiliary basis: def2/J
   F. Weigend, Phys. Chem. Chem. Phys. 8, 1057 (2006).

================================================================================
                                        WARNINGS
                       Please study these warnings very carefully!
================================================================================


WARNING: Geometry Optimization
  ===> : Switching off AutoStart
         For restart on a previous wavefunction, please use MOREAD

INFO   : the flag for use of LIBINT has been found!

================================================================================
                                       INPUT FILE
================================================================================
NAME = Cl2SO.inp
|  1> ! revPBE D4 gCP(DFT/SVP) def2-SVP Opt Freq TightOpt TightSCF Grid4 FinalGrid5 LargePrint
|  2> 
|  3> %pal
|  4>  nprocs 4
|  5> end
|  6> 
|  7> *xyz 0 1
|  8> S       -0.1438638782      2.8324320349     -0.2239910527                 
|  9> Cl       1.9067355329      3.0953524073     -0.0857921298                 
| 10> Cl      -0.6657893841      3.7968197201      1.5340573449                 
| 11> O       -0.4433358454      1.3740079309     -0.0680273390                 
| 12> *
| 13> 
| 14>                          ****END OF INPUT****
================================================================================

                       *****************************
                       * Geometry Optimization Run *
                       *****************************

Geometry optimization settings:
Update method            Update   .... BFGS
Choice of coordinates    CoordSys .... Z-matrix Internals
Initial Hessian          InHess   .... Almoef's Model

Convergence Tolerances:
Energy Change            TolE     ....  1.0000e-06 Eh
Max. Gradient            TolMAXG  ....  1.0000e-04 Eh/bohr
RMS Gradient             TolRMSG  ....  3.0000e-05 Eh/bohr
Max. Displacement        TolMAXD  ....  1.0000e-03 bohr
RMS Displacement         TolRMSD  ....  6.0000e-04 bohr
Strict Convergence                ....  False
------------------------------------------------------------------------------
                        ORCA OPTIMIZATION COORDINATE SETUP
------------------------------------------------------------------------------

The optimization will be done in new redundant internal coordinates
Making redundant internal coordinates   ...  (new redundants) done
Evaluating the initial hessian          ...  (Almloef) done
Evaluating the coordinates              ...  done
Calculating the B-matrix                .... done
Calculating the G-matrix                .... done
Diagonalizing the G-matrix              .... done
The first mode is                       ....    1
The number of degrees of freedom        ....    6

    -----------------------------------------------------------------
                    Redundant Internal Coordinates


    -----------------------------------------------------------------
         Definition                    Initial Value    Approx d2E/dq
    -----------------------------------------------------------------
      1. B(Cl  1,S   0)                  2.0720         0.308613   
      2. B(Cl  2,S   0)                  2.0720         0.308613   
      3. B(O   3,S   0)                  1.4970         1.018431   
      4. A(Cl  1,S   0,O   3)          108.3400         0.482477   
      5. A(Cl  2,S   0,O   3)          108.3400         0.482477   
      6. A(Cl  1,S   0,Cl  2)           97.6800         0.406345   
      7. I(Cl  1,O   3,Cl  2,S   0)    -66.4937         0.003441   
    -----------------------------------------------------------------

Number of atoms                         .... 4
Number of degrees of freedom            .... 7

         *************************************************************
         *                GEOMETRY OPTIMIZATION CYCLE   1            *
         *************************************************************
---------------------------------
CARTESIAN COORDINATES (ANGSTROEM)
---------------------------------
  S     -0.143864    2.832432   -0.223991
  Cl     1.906736    3.095352   -0.085792
  Cl    -0.665789    3.796820    1.534057
  O     -0.443336    1.374008   -0.068027

----------------------------
CARTESIAN COORDINATES (A.U.)
----------------------------
  NO LB      ZA    FRAG     MASS         X           Y           Z
   0 S    16.0000    0    32.060   -0.271863    5.352521   -0.423282
   1 Cl   17.0000    0    35.453    3.603208    5.849368   -0.162124
   2 Cl   17.0000    0    35.453   -1.258160    7.174949    2.898948
   3 O     8.0000    0    15.999   -0.837783    2.596499   -0.128553

--------------------------------
INTERNAL COORDINATES (ANGSTROEM)
--------------------------------
 S      0   0   0     0.000000000000     0.00000000     0.00000000
 Cl     1   0   0     2.072000002248     0.00000000     0.00000000
 Cl     1   2   0     2.072000002263    97.68000469     0.00000000
 O      1   2   3     1.497000002090   108.33999908   247.71615386

---------------------------
INTERNAL COORDINATES (A.U.)
---------------------------
 S      0   0   0     0.000000000000     0.00000000     0.00000000
 Cl     1   0   0     3.915512553734     0.00000000     0.00000000
 Cl     1   2   0     3.915512553761    97.68000469     0.00000000
 O      1   2   3     2.828920026430   108.33999908   247.71615386

---------------------
BASIS SET INFORMATION
---------------------
There are 3 groups of distinct atoms

 Group   1 Type S   : 10s7p1d contracted to 4s3p1d pattern {5311/511/1}
 Group   2 Type Cl  : 10s7p1d contracted to 4s3p1d pattern {5311/511/1}
 Group   3 Type O   : 7s4p1d contracted to 3s2p1d pattern {511/31/1}

Atom   0S    basis set group =>   1
Atom   1Cl   basis set group =>   2
Atom   2Cl   basis set group =>   2
Atom   3O    basis set group =>   3

-------------------------
BASIS SET IN INPUT FORMAT
-------------------------

 # Basis set for element : O 
 NewGTO O 
 S 5 
   1    2266.1767785000     -0.0053893504
   2     340.8701019100     -0.0402347214
   3      77.3631351670     -0.1800818421
   4      21.4796449400     -0.4682885766
   5       6.6589433124     -0.4469261716
 S 1 
   1       0.8097597567      1.0000000000
 S 1 
   1       0.2553077223      1.0000000000
 P 3 
   1      17.7215043170      0.0626302488
   2       3.8635505440      0.3333113849
   3       1.0480920883      0.7414863830
 P 1 
   1       0.2764154441      1.0000000000
 D 1 
   1       1.2000000000      1.0000000000
  end;

 # Basis set for element : S 
 NewGTO S 
 S 5 
   1    9184.9303010000     -0.0054729467
   2    1381.5105503000     -0.0409544021
   3     313.8714758000     -0.1847582895
   4      88.0538706230     -0.4756728065
   5      27.0399149050     -0.4349515358
 S 3 
   1      45.6487313030     -0.0919040458
   2       4.9664522326      0.5569877722
   3       2.0116242047      0.5111546830
 S 1 
   1       0.3566107701      1.0000000000
 S 1 
   1       0.1350722148      1.0000000000
 P 5 
   1     261.9823343900     -0.0091830547
   2      61.3068947360     -0.0659022265
   3      19.1037298870     -0.2458778452
   4       6.6567720378     -0.4823147108
   5       2.3959635161     -0.3895631435
 P 1 
   1       0.6177616168      1.0000000000
 P 1 
   1       0.1699337687      1.0000000000
 D 1 
   1       0.5500000000      1.0000000000
  end;

 # Basis set for element : Cl
 NewGTO Cl
 S 5 
   1   10449.8275660000      0.0054265952
   2    1571.7365221000      0.0406263782
   3     357.1206552300      0.1835974786
   4     100.2518593500      0.4743894876
   5      30.8127275540      0.4373518111
 S 3 
   1      51.9237894340     -0.0927541549
   2       5.7045760975      0.5638082555
   3       2.3508376809      0.5036704463
 S 1 
   1       0.4460512467      1.0000000000
 S 1 
   1       0.1684885619      1.0000000000
 P 5 
   1     307.6679056900     -0.0088797025
   2      72.1020155150     -0.0642840717
   3      22.5326802620     -0.2428873974
   4       7.8991765444     -0.4834083637
   5       2.8767268321     -0.3895256388
 P 1 
   1       0.7745936396      1.0000000000
 P 1 
   1       0.2103769970      1.0000000000
 D 1 
   1       0.6500000000      1.0000000000
  end;

---------------------------------
AUXILIARY/J BASIS SET INFORMATION
---------------------------------
There are 3 groups of distinct atoms

 Group   1 Type S   : 14s5p5d2f1g contracted to 8s4p3d1f1g pattern {71111111/2111/311/2/1}
 Group   2 Type Cl  : 14s5p5d2f1g contracted to 8s4p3d1f1g pattern {71111111/2111/311/2/1}
 Group   3 Type O   : 12s5p4d2f1g contracted to 6s4p3d1f1g pattern {711111/2111/211/2/1}

Atom   0S    basis set group =>   1
Atom   1Cl   basis set group =>   2
Atom   2Cl   basis set group =>   2
Atom   3O    basis set group =>   3

-------------------------------------
AUXILIARY/J BASIS SET IN INPUT FORMAT
-------------------------------------

 # Auxiliary/J basis set for element : O 
 NewAuxJGTO O 
 S 7 
   1    2876.8216605000      0.0168151159
   2    1004.7443032000      0.0340137548
   3     369.7579954000      0.1194951309
   4     142.9442404000      0.2664627624
   5      57.8366425000      0.4202764046
   6      24.3864983000      0.2765077335
   7      10.6622662000      0.0057008815
 S 1 
   1       4.8070437000     -1.0000000000
 S 1 
   1       2.2210770000      1.0000000000
 S 1 
   1       1.0447795000      1.0000000000
 S 1 
   1       0.4968425000      1.0000000000
 S 1 
   1       0.2371384000      1.0000000000
 P 2 
   1      64.2613382000     -0.2731534179
   2      16.3006076000     -0.8168011598
 P 1 
   1       4.3550542000      1.0000000000
 P 1 
   1       1.2019554000      1.0000000000
 P 1 
   1       0.3354196000      1.0000000000
 D 2 
   1       9.2146611000     -0.4661230638
   2       2.8435251000     -0.6600908911
 D 1 
   1       0.9955759000     -1.0000000000
 D 1 
   1       0.3649441000     -1.0000000000
 F 2 
   1       2.6420115000      0.5931563945
   2       0.7345613000      0.5931563945
 G 1 
   1       1.3931000000     -1.0000000000
  end;

 # Auxiliary/J basis set for element : S 
 NewAuxJGTO S 
 S 7 
   1    7399.0303145000      0.0295137551
   2    2710.1675859000      0.0559686311
   3    1034.3279062000      0.1764696370
   4     410.4645411000      0.3577969368
   5     168.9762502000      0.4299293578
   6      71.9687889000      0.1259148089
   7      31.6172683000     -0.0646025788
 S 1 
   1      14.2796836000      1.0000000000
 S 1 
   1       6.6060948000      1.0000000000
 S 1 
   1       3.1181477000      1.0000000000
 S 1 
   1       1.4954039000     -1.0000000000
 S 1 
   1       0.7254779000      1.0000000000
 S 1 
   1       0.3544216000      1.0000000000
 S 1 
   1       0.1735525000      1.0000000000
 P 2 
   1      12.6998799000      1.4059102813
   2       4.4295784000     -1.2124994202
 P 1 
   1       1.5232889000      1.0000000000
 P 1 
   1       0.5194667000     -1.0000000000
 P 1 
   1       0.1766547000     -1.0000000000
 D 3 
   1      16.8546461000      1.0295742104
   2       5.0810461000     -0.7461553923
   3       1.5102323000      0.8357028005
 D 1 
   1       0.4451331000      1.0000000000
 D 1 
   1       0.1308362000      1.0000000000
 F 2 
   1       1.0809860000      0.5572698934
   2       0.4161474000      0.5572698934
 G 1 
   1       0.6707100000     -1.0000000000
  end;

 # Auxiliary/J basis set for element : Cl
 NewAuxJGTO Cl
 S 7 
   1    8044.2766240000      0.0309054740
   2    2924.5123954000      0.0600734063
   3    1110.8168739000      0.1862207460
   4     439.9050761000      0.3715503251
   5     181.1987287000      0.4220785347
   6      77.4148302000      0.0994388367
   7      34.1977273000     -0.0596902748
 S 1 
   1      15.5648397000      1.0000000000
 S 1 
   1       7.2707873000      1.0000000000
 S 1 
   1       3.4711900000     -1.0000000000
 S 1 
   1       1.6860808000     -1.0000000000
 S 1 
   1       0.8293125000      1.0000000000
 S 1 
   1       0.4110124000      1.0000000000
 S 1 
   1       0.2042190000      1.0000000000
 P 2 
   1      12.2564993000      1.4910316311
   2       4.8922575000     -1.4908224419
 P 1 
   1       1.9265460000      1.0000000000
 P 1 
   1       0.7525989000     -1.0000000000
 P 1 
   1       0.2932189000     -1.0000000000
 D 3 
   1      28.4370504000     -1.0829567244
   2       7.2772298000      0.5502349187
   3       2.3111621000     -0.5567798939
 D 1 
   1       0.8580943000     -1.0000000000
 D 1 
   1       0.3376227000     -1.0000000000
 F 2 
   1       1.2035685000      0.5557691438
   2       0.4700000000      0.5557691438
 G 1 
   1       0.7521100000     -1.0000000000
  end;



           ************************************************************
           *        Program running with 4 parallel MPI-processes     *
           *              working on a common directory               *
           ************************************************************
------------------------------------------------------------------------------
                           ORCA GTO INTEGRAL CALCULATION
                           -- RI-GTO INTEGRALS CHOSEN --
------------------------------------------------------------------------------

                         BASIS SET STATISTICS AND STARTUP INFO

Gaussian basis set:
 # of primitive gaussian shells          ...   66
 # of primitive gaussian functions       ...  132
 # of contracted shells                  ...   30
 # of contracted basis functions         ...   68
 Highest angular momentum                ...    2
 Maximum contraction depth               ...    5
Auxiliary gaussian basis set:
 # of primitive gaussian shells          ...  105
 # of primitive gaussian functions       ...  301
 # of contracted shells                  ...   66
 # of contracted aux-basis functions     ...  202
 Highest angular momentum                ...    4
 Maximum contraction depth               ...    7
Ratio of auxiliary to basis functions    ...  2.97
Integral package used                  ... LIBINT
 One Electron integrals                  ... done
 Ordering auxiliary basis shells         ... done
 Integral threshhold             Thresh  ...  2.500e-11
 Primitive cut-off               TCut    ...  2.500e-12
 Pre-screening matrix                    ... done
 Shell pair data                         ... 
 Ordering of the shell pairs             ... done (   0.000 sec) 435 of 465 pairs
 Determination of significant pairs      ... done (   0.000 sec)
 Creation of shell pair data             ... done (   0.000 sec)
 Storage of shell pair data              ... done (   0.004 sec)
 Shell pair data done in (   0.005 sec)
 Computing two index integrals           ... done
 Cholesky decomposition of the V-matrix  ... done


Timings:
 Total evaluation time                   ...   0.156 sec (  0.003 min)
 One electron matrix time                ...   0.009 sec (  0.000 min) =  5.8%
 Schwartz matrix evaluation time         ...   0.111 sec (  0.002 min) = 71.2%
 Two index repulsion integral time       ...   0.001 sec (  0.000 min) =  0.9%
 Cholesky decomposition of V             ...   0.007 sec (  0.000 min) =  4.6%
 Three index repulsion integral time     ...   0.000 sec (  0.000 min) =  0.0%



           ************************************************************
           *        Program running with 4 parallel MPI-processes     *
           *              working on a common directory               *
           ************************************************************
-------------------------------------------------------------------------------
                                 ORCA SCF
-------------------------------------------------------------------------------

------------
SCF SETTINGS
------------
Hamiltonian:
 Density Functional     Method          .... DFT(GTOs)
 Exchange Functional    Exchange        .... PBE
   PBE kappa parameter   XKappa         ....  1.245000
   PBE mue parameter    XMuePBE         ....  0.219520
 Correlation Functional Correlation     .... PBE
   PBE beta parameter  CBetaPBE         ....  0.066725
 LDA part of GGA corr.  LDAOpt          .... PW91-LDA
 Gradients option       PostSCFGGA      .... off
   Density functional embedding theory  .... OFF
   NL short-range parameter             ....  3.700000
 RI-approximation to the Coulomb term is turned on
   Number of auxiliary basis functions  .... 202


General Settings:
 Integral files         IntName         .... Cl2SO
 Hartree-Fock type      HFTyp           .... RHF
 Total Charge           Charge          ....    0
 Multiplicity           Mult            ....    1
 Number of Electrons    NEL             ....   58
 Basis Dimension        Dim             ....   68
 Nuclear Repulsion      ENuc            ....    282.6095166349 Eh

Convergence Acceleration:
 DIIS                   CNVDIIS         .... on
   Start iteration      DIISMaxIt       ....    12
   Startup error        DIISStart       ....  0.200000
   # of expansion vecs  DIISMaxEq       ....     5
   Bias factor          DIISBfac        ....   1.050
   Max. coefficient     DIISMaxC        ....  10.000
 Newton-Raphson         CNVNR           .... off
 SOSCF                  CNVSOSCF        .... on
   Start iteration      SOSCFMaxIt      ....   150
   Startup grad/error   SOSCFStart      ....  0.003300
 Level Shifting         CNVShift        .... on
   Level shift para.    LevelShift      ....    0.2500
   Turn off err/grad.   ShiftErr        ....    0.0010
 Zerner damping         CNVZerner       .... off
 Static damping         CNVDamp         .... on
   Fraction old density DampFac         ....    0.7000
   Max. Damping (<1)    DampMax         ....    0.9800
   Min. Damping (>=0)   DampMin         ....    0.0000
   Turn off err/grad.   DampErr         ....    0.1000
 Fernandez-Rico         CNVRico         .... off

SCF Procedure:
 Maximum # iterations   MaxIter         ....   125
 SCF integral mode      SCFMode         .... Direct
   Integral package                     .... LIBINT
 Reset frequency        DirectResetFreq ....    20
 Integral Threshold     Thresh          ....  2.500e-11 Eh
 Primitive CutOff       TCut            ....  2.500e-12 Eh

Convergence Tolerance:
 Convergence Check Mode ConvCheckMode   .... Total+1el-Energy
 Convergence forced     ConvForced      .... 0
 Energy Change          TolE            ....  1.000e-08 Eh
 1-El. energy change                    ....  1.000e-05 Eh
 Orbital Gradient       TolG            ....  1.000e-05
 Orbital Rotation angle TolX            ....  1.000e-05
 DIIS Error             TolErr          ....  5.000e-07


Diagonalization of the overlap matrix:
Smallest eigenvalue                        ... 1.259e-02
Time for diagonalization                   ...    0.001 sec
Threshold for overlap eigenvalues          ... 1.000e-08
Number of eigenvalues below threshold      ... 0
Time for construction of square roots      ...    0.001 sec
Total time needed                          ...    0.002 sec

-------------------
DFT GRID GENERATION
-------------------

General Integration Accuracy     IntAcc      ...  4.670
Radial Grid Type                 RadialGrid  ... Gauss-Chebyshev
Angular Grid (max. acc.)         AngularGrid ... Lebedev-302
Angular grid pruning method      GridPruning ... 3 (G Style)
Weight generation scheme         WeightScheme... Becke
Basis function cutoff            BFCut       ...    1.0000e-11
Integration weight cutoff        WCut        ...    1.0000e-14
Grids for H and He will be reduced by one unit

# of grid points (after initial pruning)     ...  26534 (   0.0 sec)
# of grid points (after weights+screening)   ...  26217 (   0.0 sec)
nearest neighbour list constructed           ...    0.0 sec
Grid point re-assignment to atoms done       ...    0.0 sec
Grid point division into batches done        ...    0.2 sec
Reduced shell lists constructed in    0.2 sec

Total number of grid points                  ...    26217
Total number of batches                      ...      413
Average number of points per batch           ...       63
Average number of grid points per atom       ...     6554
Average number of shells per batch           ...    18.04 (60.13%)
Average number of basis functions per batch  ...    43.90 (64.57%)
Average number of large shells per batch     ...    16.01 (88.75%)
Average number of large basis fcns per batch ...    39.32 (89.57%)
Maximum spatial batch extension              ...  17.04, 18.75, 17.00 au
Average spatial batch extension              ...   1.00,  0.95,  0.97 au

Time for grid setup =    0.237 sec

------------------------------
INITIAL GUESS: MODEL POTENTIAL
------------------------------
Loading Hartree-Fock densities                     ... done
Calculating cut-offs                               ... done
Setting up the integral package                    ... done
Initializing the effective Hamiltonian             ... done
Starting the Coulomb interaction                   ... done (   0.0 sec)
Reading the grid                                   ... done
Mapping shells                                     ... done
Starting the XC term evaluation                    ... done (   0.0 sec)
  promolecular density results
     # of electrons  =     57.999977374
     EX              =    -88.173194070
     EC              =     -2.239040896
     EX+EC           =    -90.412234966
Transforming the Hamiltonian                       ... done (   0.0 sec)
Diagonalizing the Hamiltonian                      ... done (   0.0 sec)
Back transforming the eigenvectors                 ... done (   0.0 sec)
Now organizing SCF variables                       ... done
                      ------------------
                      INITIAL GUESS DONE (   0.4 sec)
                      ------------------
----------------------
INITIAL GUESS ORBITALS
----------------------
                      0         1         2         3         4         5   
                 -100.68610 -100.68606 -88.09064 -18.94136  -9.22992  -9.22988
                   2.00000   2.00000   2.00000   2.00000   2.00000   2.00000
                  --------  --------  --------  --------  --------  --------
  0S   1s        -0.000000  0.000006 -0.994255  0.000058  0.000000  0.000029
  0S   2s        -0.000000  0.000076  0.021799  0.000415  0.000001  0.000255
  0S   3s         0.000000 -0.001017 -0.010712 -0.003192 -0.000010 -0.002537
  0S   4s        -0.000000  0.003305  0.006478  0.015466  0.000033  0.008343
  0S   1pz        0.000001 -0.000015 -0.000077 -0.000128 -0.000026 -0.000058
  0S   1px       -0.000001 -0.000010 -0.000016 -0.000027  0.000041 -0.000045
  0S   1py        0.000000 -0.000005  0.000117  0.000194 -0.000011 -0.000031
  0S   2pz        0.000008 -0.000090 -0.000420 -0.000733 -0.000021 -0.000216
  0S   2px       -0.000013 -0.000059 -0.000145 -0.000529  0.000032 -0.000143
  0S   2py        0.000004 -0.000010  0.000438 -0.000248 -0.000009 -0.000027
  0S   3pz        0.000553  0.000993  0.001139  0.003743  0.001420  0.002268
  0S   3px       -0.000878  0.000604  0.001039  0.000444 -0.002235  0.001380
  0S   3py        0.000239 -0.000076  0.001178 -0.007014  0.000610 -0.000226
  0S   1dz2       0.000102 -0.000084  0.000328 -0.000344 -0.000007 -0.000245
  0S   1dxz      -0.000047 -0.000063 -0.000030 -0.000206  0.000003 -0.000095
  0S   1dyz       0.000058  0.000040  0.000227  0.000100 -0.000002 -0.000083
  0S   1dx2y2    -0.000087 -0.000056  0.000634 -0.000299  0.000003 -0.000335
  0S   1dxy      -0.000032  0.000048 -0.000225  0.000206  0.000000  0.000123
  1Cl  1s         0.702943 -0.702847  0.000009  0.000003  0.219342 -0.221117
  1Cl  2s         0.015766 -0.015708 -0.000056 -0.000038 -0.718210  0.724125
  1Cl  3s        -0.007144  0.006947  0.000459  0.000971 -0.037708  0.037289
  1Cl  4s         0.004380 -0.004502 -0.001617 -0.003320  0.015270 -0.015313
  1Cl  1pz       -0.000011 -0.000013  0.000001  0.000006 -0.000081  0.000020
  1Cl  1px        0.000064 -0.000041 -0.000004 -0.000019 -0.000776  0.000841
  1Cl  1py       -0.000001 -0.000016 -0.000001 -0.000013 -0.000116  0.000077
  1Cl  2pz       -0.000054 -0.000065  0.000012  0.000050 -0.000156 -0.000198
  1Cl  2px        0.000332 -0.000230 -0.000011 -0.000239  0.001062 -0.000751
  1Cl  2py       -0.000001 -0.000088  0.000001 -0.000144  0.000008 -0.000253
  1Cl  3pz        0.000051  0.000102 -0.000045 -0.000230  0.000223  0.000346
  1Cl  3px       -0.000863  0.000961  0.000799  0.002180 -0.002275  0.002309
  1Cl  3py       -0.000048  0.000248  0.000033  0.001006 -0.000080  0.000656
  1Cl  1dz2      -0.000063  0.000116 -0.000014  0.000226 -0.000085  0.000214
  1Cl  1dxz       0.000008 -0.000008  0.000064  0.000145 -0.000020 -0.000042
  1Cl  1dyz       0.000026  0.000021  0.000023 -0.000003  0.000069  0.000055
  1Cl  1dx2y2     0.000135 -0.000160  0.000038 -0.000371  0.000227 -0.000267
  1Cl  1dxy       0.000031 -0.000075  0.000046 -0.000469  0.000033 -0.000164
  2Cl  1s        -0.702840 -0.702950  0.000009  0.000003 -0.221097 -0.219362
  2Cl  2s        -0.015764 -0.015711 -0.000056 -0.000038  0.723957  0.718380
  2Cl  3s         0.007143  0.006948  0.000459  0.000971  0.038004  0.036987
  2Cl  4s        -0.004379 -0.004502 -0.001617 -0.003320 -0.015392 -0.015190
  2Cl  1pz       -0.000050 -0.000038 -0.000003 -0.000010  0.000681  0.000706
  2Cl  1px        0.000033 -0.000003  0.000002  0.000007 -0.000169 -0.000255
  2Cl  1py       -0.000026 -0.000027 -0.000003 -0.000020  0.000375  0.000372
  2Cl  2pz       -0.000259 -0.000206 -0.000004 -0.000148 -0.000841 -0.000669
  2Cl  2px        0.000166 -0.000005  0.000015  0.000076  0.000513  0.000003
  2Cl  2py       -0.000134 -0.000149 -0.000006 -0.000229 -0.000441 -0.000457
  2Cl  3pz        0.000704  0.000812  0.000656  0.001525  0.001842  0.001969
  2Cl  3px       -0.000336 -0.000167 -0.000313 -0.000608 -0.000982 -0.000283
  2Cl  3py        0.000375  0.000556  0.000336  0.001766  0.000978  0.001357
  2Cl  1dz2      -0.000081 -0.000098  0.000049  0.000003 -0.000112 -0.000176
  2Cl  1dxz       0.000056  0.000079  0.000036  0.000131  0.000109  0.000113
  2Cl  1dyz      -0.000116 -0.000148  0.000063 -0.000564 -0.000193 -0.000264
  2Cl  1dx2y2    -0.000005  0.000063 -0.000019  0.000195 -0.000050  0.000153
  2Cl  1dxy       0.000026  0.000060  0.000020  0.000238  0.000044  0.000101
  3O   1s        -0.000000  0.000009  0.000055 -0.988944  0.000000  0.000000
  3O   2s        -0.000000  0.000168 -0.000103  0.040224  0.000001  0.000251
  3O   3s         0.000000 -0.000936  0.000838 -0.025993 -0.000009 -0.002159
  3O   1pz       -0.000023 -0.000017  0.000032 -0.000093 -0.000074 -0.000065
  3O   1px        0.000037 -0.000014  0.000070  0.000400  0.000117 -0.000065
  3O   1py       -0.000010 -0.000012  0.000184  0.001684 -0.000032 -0.000085
  3O   2pz       -0.000004 -0.000037 -0.000432  0.000138  0.000046  0.000022
  3O   2px        0.000006 -0.000113  0.000111 -0.001785 -0.000074 -0.000189
  3O   2py       -0.000002 -0.000329  0.001404 -0.006864  0.000017 -0.000746
  3O   1dz2       0.000022  0.000012 -0.000395  0.000208  0.000060  0.000037
  3O   1dxz      -0.000014 -0.000008 -0.000036 -0.000000 -0.000038 -0.000019
  3O   1dyz      -0.000003 -0.000017 -0.000185 -0.000022 -0.000002 -0.000024
  3O   1dx2y2    -0.000005  0.000015 -0.000660  0.000299 -0.000019  0.000058
  3O   1dxy       0.000015 -0.000022  0.000256 -0.000191  0.000034 -0.000054
                      6         7         8         9        10        11   
                  -7.74541  -7.04672  -7.04671  -7.04551  -7.04550  -7.04549
                   2.00000   2.00000   2.00000   2.00000   2.00000   2.00000
                  --------  --------  --------  --------  --------  --------
  0S   1s         0.306111 -0.000002  0.000014 -0.000000 -0.000001 -0.000001
  0S   2s         1.018768 -0.000011  0.000064 -0.000000 -0.000006 -0.000008
  0S   3s         0.056283  0.000257 -0.001561  0.000015  0.000307  0.000406
  0S   4s        -0.023724 -0.001242  0.007553 -0.000060 -0.001226 -0.001618
  0S   1pz       -0.001081  0.000012 -0.000021  0.000022  0.000009  0.000022
  0S   1px       -0.000155 -0.000011 -0.000018 -0.000034  0.000011 -0.000000
  0S   1py        0.001929  0.000004 -0.000006  0.000009 -0.000022 -0.000026
  0S   2pz        0.001419  0.000224  0.000051  0.000168  0.000072  0.000180
  0S   2px        0.000475 -0.000366 -0.000016 -0.000259  0.000085 -0.000007
  0S   2py       -0.001535  0.000077  0.000139  0.000062 -0.000202 -0.000241
  0S   3pz       -0.003022  0.000806  0.002526 -0.000601 -0.000392 -0.000863
  0S   3px       -0.002665 -0.002126  0.001134  0.000922 -0.000220  0.000228
  0S   3py       -0.002796  0.000539 -0.000005 -0.000186  0.001505  0.001911
  0S   1dz2      -0.000959  0.000098 -0.000183  0.000045 -0.000093  0.000093
  0S   1dxz       0.000012 -0.000016 -0.000106 -0.000013  0.000084 -0.000078
  0S   1dyz      -0.000471  0.000032  0.000018  0.000051  0.000181  0.000076
  0S   1dx2y2    -0.001692 -0.000019 -0.000212 -0.000052  0.000048  0.000134
  0S   1dxy       0.000678 -0.000032  0.000106 -0.000044 -0.000155  0.000157
  1Cl  1s        -0.000038 -0.000422  0.000291 -0.000011 -0.000002 -0.000001
  1Cl  2s         0.000260  0.001658 -0.001104  0.000088  0.000016  0.000017
  1Cl  3s        -0.001299 -0.002201  0.001355 -0.000413 -0.000156 -0.000150
  1Cl  4s         0.004540  0.003291 -0.002873  0.000281  0.000378  0.000275
  1Cl  1pz        0.000000 -0.042535  0.037561  0.596639 -0.165901  0.384768
  1Cl  1px        0.000052 -0.788497  0.565872 -0.071729 -0.000160  0.090927
  1Cl  1py        0.000007 -0.098070  0.075852  0.330606  0.087834 -0.881080
  1Cl  2pz       -0.000025  0.002205 -0.002135 -0.031934  0.008825 -0.020491
  1Cl  2px        0.000138  0.042911 -0.030628  0.003986  0.000058 -0.004787
  1Cl  2py        0.000013  0.005282 -0.004225 -0.017681 -0.004657  0.046897
  1Cl  3pz        0.000127 -0.000288  0.000499  0.005172 -0.001295  0.003153
  1Cl  3px       -0.001943 -0.008455  0.006395 -0.000714 -0.000234  0.000574
  1Cl  3py       -0.000096 -0.000987  0.001117  0.002852  0.000538 -0.007172
  1Cl  1dz2       0.000247 -0.000058  0.000156  0.000033 -0.000036 -0.000009
  1Cl  1dxz      -0.000206 -0.000010 -0.000003 -0.000048 -0.000035 -0.000011
  1Cl  1dyz      -0.000058  0.000040  0.000051  0.000035  0.000014  0.000004
  1Cl  1dx2y2    -0.000449  0.000141 -0.000182 -0.000009  0.000007  0.000009
  1Cl  1dxy      -0.000190  0.000037 -0.000120 -0.000025  0.000089  0.000003
  2Cl  1s        -0.000038  0.000307  0.000410  0.000010 -0.000004 -0.000003
  2Cl  2s         0.000260 -0.001220 -0.001574 -0.000084  0.000028  0.000026
  2Cl  3s        -0.001299  0.001654  0.001986  0.000395 -0.000134 -0.000211
  2Cl  4s         0.004540 -0.002201 -0.003773 -0.000249  0.000196  0.000451
  2Cl  1pz        0.000043  0.484753  0.675736 -0.122710  0.463366  0.053913
  2Cl  1px       -0.000016 -0.154447 -0.203279 -0.669820  0.016551 -0.077721
  2Cl  1py        0.000025  0.261697  0.367779 -0.163548 -0.843078 -0.139420
  2Cl  2pz        0.000104 -0.026382 -0.036642  0.006454 -0.024626 -0.002820
  2Cl  2px       -0.000066  0.008569  0.010934  0.035891 -0.000917  0.004104
  2Cl  2py        0.000068 -0.014222 -0.020018  0.008680  0.044890  0.007463
  2Cl  3pz       -0.001583  0.005052  0.007459 -0.001008  0.003667  0.000272
  2Cl  3px        0.000772 -0.001839 -0.002160 -0.005818  0.000214 -0.000534
  2Cl  3py       -0.000837  0.002678  0.004306 -0.001367 -0.006859 -0.001399
  2Cl  1dz2      -0.000373 -0.000029 -0.000121  0.000040  0.000011 -0.000047
  2Cl  1dxz       0.000077  0.000029  0.000111  0.000011 -0.000012 -0.000014
  2Cl  1dyz      -0.000434 -0.000064 -0.000215  0.000013 -0.000012  0.000078
  2Cl  1dx2y2     0.000100 -0.000055  0.000103 -0.000058  0.000017 -0.000040
  2Cl  1dxy       0.000037  0.000000  0.000092 -0.000003 -0.000001 -0.000011
  3O   1s        -0.000082 -0.000001  0.000007 -0.000000 -0.000006 -0.000009
  3O   2s        -0.000392 -0.000047  0.000282 -0.000007 -0.000155 -0.000209
  3O   3s        -0.001186  0.000338 -0.002023  0.000053  0.001172  0.001586
  3O   1pz       -0.000058 -0.000047 -0.000037  0.000020  0.000119  0.000023
  3O   1px       -0.000199  0.000089 -0.000027 -0.000026 -0.000070  0.000126
  3O   1py       -0.000596 -0.000010 -0.000082  0.000008  0.000038 -0.000010
  3O   2pz        0.001112  0.000019 -0.000106  0.000032 -0.000317 -0.000036
  3O   2px       -0.000264  0.000037 -0.000250 -0.000059  0.000340 -0.000161
  3O   2py       -0.003536  0.000114 -0.000676  0.000037  0.000365  0.000664
  3O   1dz2       0.000616  0.000038  0.000042 -0.000012 -0.000025 -0.000003
  3O   1dxz       0.000063 -0.000027 -0.000021  0.000011  0.000011  0.000001
  3O   1dyz       0.000321 -0.000003 -0.000038  0.000015 -0.000003  0.000015
  3O   1dx2y2     0.001041 -0.000016  0.000045 -0.000009 -0.000002 -0.000030
  3O   1dxy      -0.000383  0.000045 -0.000049 -0.000027  0.000020  0.000016
                     12        13        14        15        16        17   
                  -7.04549  -5.76311  -5.76044  -5.75991  -1.03487  -0.82020
                   2.00000   2.00000   2.00000   2.00000   2.00000   2.00000
                  --------  --------  --------  --------  --------  --------
  0S   1s        -0.000001 -0.000810 -0.000000  0.000591  0.036138 -0.027561
  0S   2s        -0.000007 -0.003172 -0.000001  0.002381  0.219503 -0.170683
  0S   3s         0.000165  0.001222 -0.000003 -0.004211 -0.308193  0.238221
  0S   4s        -0.000559  0.004976  0.000015  0.008426 -0.030830  0.093019
  0S   1pz       -0.000018 -0.000020  0.510200  0.837958 -0.013097  0.028381
  0S   1px       -0.000012  0.259228 -0.808096  0.492053  0.013544  0.029499
  0S   1py       -0.000004  0.945538  0.221556 -0.134956  0.079917  0.042645
  0S   2pz       -0.000142 -0.000203 -0.027509 -0.045207 -0.021703  0.045755
  0S   2px       -0.000099 -0.014601  0.043570 -0.026649  0.020186  0.047271
  0S   2py       -0.000036 -0.052800 -0.011949  0.006902  0.124147  0.067698
  0S   3pz        0.000610  0.001492  0.005660  0.010556 -0.002429  0.035395
  0S   3px        0.000446  0.002670 -0.008959  0.006225  0.009630  0.033820
  0S   3py        0.000240  0.006291  0.002452 -0.001598  0.040924  0.042295
  0S   1dz2       0.000151 -0.001434 -0.000091 -0.000172  0.025485  0.009054
  0S   1dxz       0.000380 -0.000143  0.000074 -0.000123  0.002750 -0.003391
  0S   1dyz       0.000001 -0.000579  0.000071  0.000366  0.008770  0.016385
  0S   1dx2y2    -0.000072 -0.002338 -0.000032  0.000035  0.040555  0.024897
  0S   1dxy       0.000117  0.000957 -0.000150  0.000206 -0.017417 -0.004151
  1Cl  1s        -0.000006  0.000005 -0.000005  0.000010 -0.005284  0.053688
  1Cl  2s         0.000064 -0.000034  0.000023 -0.000081  0.032352 -0.335135
  1Cl  3s        -0.000387  0.000202  0.000002  0.000815 -0.039856  0.457032
  1Cl  4s         0.000423 -0.001634  0.001867 -0.003742 -0.026646  0.213125
  1Cl  1pz       -0.652863 -0.000001  0.000031  0.000026  0.000209  0.000393
  1Cl  1px        0.072034  0.000014 -0.000063  0.000005  0.008235 -0.029159
  1Cl  1py       -0.228689  0.000027  0.000001 -0.000015  0.002520 -0.001488
  1Cl  2pz        0.034573  0.000008  0.000176  0.000185  0.000230  0.000708
  1Cl  2px       -0.003678  0.000100 -0.000362 -0.000027  0.012080 -0.047823
  1Cl  2py        0.012104  0.000173  0.000017 -0.000089  0.003838 -0.002445
  1Cl  3pz       -0.004902 -0.000036 -0.000828 -0.000885  0.000782 -0.000369
  1Cl  3px        0.000323  0.000774 -0.000429  0.002080  0.016233 -0.038322
  1Cl  3py       -0.001695 -0.000612 -0.000413  0.000597  0.003018 -0.002677
  1Cl  1dz2       0.000008 -0.000141  0.000331 -0.000006  0.003410 -0.008031
  1Cl  1dxz      -0.000097  0.000087  0.000145  0.000344 -0.000254  0.000360
  1Cl  1dyz       0.000017  0.000034  0.000029  0.000058 -0.000060  0.000532
  1Cl  1dx2y2     0.000030  0.000207 -0.000542  0.000092 -0.004620  0.014761
  1Cl  1dxy      -0.000042  0.000228 -0.000035 -0.000063 -0.002878  0.002118
  2Cl  1s        -0.000006  0.000005  0.000005  0.000010 -0.005284  0.053688
  2Cl  2s         0.000064 -0.000034 -0.000023 -0.000081  0.032353 -0.335136
  2Cl  3s        -0.000391  0.000202  0.000000  0.000815 -0.039857  0.457035
  2Cl  4s         0.000427 -0.001630 -0.001879 -0.003739 -0.026645  0.213125
  2Cl  1pz       -0.190779  0.000005  0.000040  0.000019  0.006559 -0.024439
  2Cl  1px       -0.663936  0.000004 -0.000049  0.000016 -0.001849  0.010275
  2Cl  1py       -0.013264  0.000030  0.000030 -0.000018  0.005269 -0.012241
  2Cl  2pz        0.010223  0.000048  0.000233  0.000082  0.009554 -0.040051
  2Cl  2px        0.035104  0.000036 -0.000287  0.000136 -0.002726  0.016905
  2Cl  2py        0.000744  0.000190  0.000160 -0.000133  0.007875 -0.020096
  2Cl  3pz       -0.001627  0.000787  0.000657  0.001232  0.013554 -0.032357
  2Cl  3px       -0.004892 -0.000537  0.000703 -0.001286 -0.004052  0.012479
  2Cl  3py       -0.000154 -0.000256  0.000340  0.001513  0.008548 -0.016529
  2Cl  1dz2      -0.000040  0.000121  0.000273  0.000301 -0.002500  0.009546
  2Cl  1dxz      -0.000073 -0.000001 -0.000413  0.000144  0.002056 -0.007721
  2Cl  1dyz      -0.000002  0.000303  0.000363  0.000024 -0.005058  0.010966
  2Cl  1dx2y2     0.000064 -0.000122 -0.000014  0.000011  0.001842 -0.000618
  2Cl  1dxy      -0.000036 -0.000031 -0.000223  0.000149  0.001368 -0.003996
  3O   1s         0.000002  0.000271  0.000000  0.000061 -0.264905 -0.080342
  3O   2s        -0.000008  0.001062  0.000002  0.000933 -0.546774 -0.170728
  3O   3s         0.000233 -0.004014 -0.000008 -0.003243 -0.300596 -0.114411
  3O   1pz        0.000030  0.000130  0.000132  0.000223  0.014316  0.009351
  3O   1px        0.000023 -0.000035 -0.000208  0.000188 -0.029853  0.007745
  3O   1py        0.000008 -0.000432  0.000056  0.000174 -0.142542  0.006806
  3O   2pz       -0.000176  0.000068 -0.000648 -0.001159  0.003878  0.000871
  3O   2px       -0.000095 -0.001236  0.001025 -0.000994 -0.011231  0.001192
  3O   2py        0.000074 -0.004685 -0.000287 -0.000965 -0.050146  0.002358
  3O   1dz2       0.000007  0.000757 -0.000023 -0.000090  0.007225 -0.000491
  3O   1dxz       0.000001  0.000055  0.000062  0.000033  0.000519  0.000100
  3O   1dyz      -0.000020  0.000268  0.000172  0.000252  0.002355  0.001257
  3O   1dx2y2    -0.000002  0.001230 -0.000138 -0.000026  0.011631 -0.000140
  3O   1dxy      -0.000012 -0.000531 -0.000264  0.000193 -0.005155  0.000956
                     18        19        20        21        22        23   
                  -0.78219  -0.61787  -0.47925  -0.46052  -0.44057  -0.36846
                   2.00000   2.00000   2.00000   2.00000   2.00000   2.00000
                  --------  --------  --------  --------  --------  --------
  0S   1s         0.000000 -0.061390 -0.008968 -0.000000 -0.013525  0.000001
  0S   2s         0.000000 -0.387952 -0.056013 -0.000001 -0.086599  0.000004
  0S   3s        -0.000000  0.583796  0.056936  0.000003  0.137049 -0.000006
  0S   4s        -0.000002  0.218079  0.147369 -0.000007  0.074760 -0.000001
  0S   1pz        0.028175  0.000655  0.035716  0.080895 -0.119744  0.026636
  0S   1px       -0.044745  0.001335  0.061255 -0.128469 -0.057883 -0.042295
  0S   1py        0.012201  0.003376  0.142166  0.035031  0.064246  0.011532
  0S   2pz        0.046233  0.003310  0.059085  0.139441 -0.205331  0.048649
  0S   2px       -0.073423  0.001918  0.106051 -0.221446 -0.098195 -0.077251
  0S   2py        0.020021 -0.000619  0.252481  0.060383  0.114054  0.021062
  0S   3pz        0.031079 -0.005591  0.075318  0.139985 -0.232163  0.035879
  0S   3px       -0.049359  0.004381  0.095758 -0.222315 -0.117782 -0.056967
  0S   3py        0.013460  0.028976  0.177243  0.060625  0.104186  0.015531
  0S   1dz2       0.022953 -0.001852  0.026746  0.027020 -0.010415  0.021440
  0S   1dxz      -0.010957 -0.001257  0.002465 -0.020224 -0.003165  0.000796
  0S   1dyz       0.012134  0.002862  0.013668 -0.012580  0.055521  0.051780
  0S   1dx2y2    -0.018791 -0.000254  0.045271  0.001147  0.016521 -0.052582
  0S   1dxy      -0.005789  0.001863 -0.016915  0.032677  0.027448 -0.064859
  1Cl  1s        -0.061799 -0.029973 -0.013574  0.013681  0.002367  0.003575
  1Cl  2s         0.386901  0.189923  0.086806 -0.087835 -0.015188 -0.022683
  1Cl  3s        -0.530278 -0.265629 -0.120414  0.128261  0.020685  0.027088
  1Cl  4s        -0.260947 -0.161063 -0.111574  0.103672  0.032284  0.037676
  1Cl  1pz        0.003668 -0.004785  0.003928  0.026015 -0.039809  0.045488
  1Cl  1px        0.016195 -0.053880 -0.089883  0.099965  0.018304  0.128714
  1Cl  1py        0.003705 -0.005641  0.010376  0.035000  0.033749 -0.013550
  1Cl  2pz        0.006224 -0.007583  0.006783  0.045183 -0.067598  0.078907
  1Cl  2px        0.027120 -0.090194 -0.154590  0.170575  0.031571  0.224480
  1Cl  2py        0.006186 -0.009333  0.017771  0.059299  0.056997 -0.021487
  1Cl  3pz        0.003923 -0.009203  0.007488  0.043370 -0.079449  0.097363
  1Cl  3px        0.024813 -0.083463 -0.147635  0.176987  0.022499  0.269188
  1Cl  3py        0.004994 -0.009840  0.019460  0.068591  0.069178 -0.040432
  1Cl  1dz2       0.005973 -0.009908 -0.010182  0.012328  0.003236  0.006797
  1Cl  1dxz      -0.003096  0.002830 -0.001204 -0.009482  0.012050 -0.008865
  1Cl  1dyz       0.000059  0.000163 -0.000486 -0.002183  0.002268  0.000852
  1Cl  1dx2y2    -0.009354  0.017121  0.019766 -0.017054 -0.000511 -0.017347
  1Cl  1dxy      -0.003611  0.004079 -0.004466 -0.013301 -0.011210  0.000835
  2Cl  1s         0.061799 -0.029973 -0.013574 -0.013681  0.002366 -0.003576
  2Cl  2s        -0.386900  0.189922  0.086806  0.087837 -0.015186  0.022685
  2Cl  3s         0.530277 -0.265627 -0.120414 -0.128265  0.020681 -0.027091
  2Cl  4s         0.260946 -0.161062 -0.111573 -0.103671  0.032282 -0.037679
  2Cl  1pz       -0.014692 -0.047020 -0.077570 -0.089409 -0.010556 -0.134332
  2Cl  1px        0.001311  0.013196  0.039548  0.000716 -0.028157  0.012404
  2Cl  1py       -0.008479 -0.023930 -0.024915 -0.062451  0.046415 -0.024923
  2Cl  2pz       -0.024646 -0.078539 -0.133383 -0.153027 -0.017433 -0.233582
  2Cl  2px        0.002134  0.022498  0.068017  0.000698 -0.048103  0.021202
  2Cl  2py       -0.014165 -0.040058 -0.042925 -0.105998  0.078717 -0.045493
  2Cl  3pz       -0.021888 -0.073405 -0.127499 -0.155515 -0.033507 -0.284788
  2Cl  3px        0.003717  0.018500  0.066743  0.001116 -0.050469  0.028518
  2Cl  3py       -0.012774 -0.037641 -0.038994 -0.117152  0.089069 -0.040729
  2Cl  1dz2       0.007458  0.012349  0.014276  0.013726  0.010808  0.017933
  2Cl  1dxz      -0.002947 -0.007325 -0.013799 -0.001548  0.004595 -0.003771
  2Cl  1dyz       0.008395  0.013656  0.009078  0.021125 -0.007816  0.009187
  2Cl  1dx2y2    -0.002813 -0.002596  0.002659 -0.008752  0.005491 -0.000270
  2Cl  1dxy      -0.001768 -0.004069 -0.005683 -0.000863  0.007589 -0.002610
  3O   1s         0.000000 -0.128817  0.067059 -0.000001  0.013359  0.000001
  3O   2s         0.000000 -0.275823  0.134219 -0.000005  0.021952  0.000004
  3O   3s         0.000002 -0.246397  0.185881  0.000007  0.061505 -0.000005
  3O   1pz        0.010080 -0.026850  0.130732  0.198909 -0.393274 -0.255116
  3O   1px       -0.016009  0.046171 -0.037885 -0.315882 -0.282651  0.405138
  3O   1py        0.004365  0.231319 -0.440816  0.086137 -0.128413 -0.110468
  3O   2pz        0.003216 -0.013735  0.068828  0.117694 -0.241316 -0.172645
  3O   2px       -0.005107  0.021467 -0.021101 -0.186903 -0.169402  0.274166
  3O   2py        0.001393  0.110442 -0.236318  0.050971 -0.064009 -0.074761
  3O   1dz2       0.000083 -0.004844  0.005732 -0.001265  0.004884  0.001449
  3O   1dxz       0.000290 -0.000344  0.001151  0.003215 -0.002310 -0.002321
  3O   1dyz       0.001254 -0.001766  0.006882  0.008907 -0.015824 -0.005209
  3O   1dx2y2    -0.001116 -0.007900  0.011320 -0.007258  0.000664  0.003988
  3O   1dxy      -0.001799  0.003389 -0.001775 -0.013758 -0.011585  0.008419
                     24        25        26        27        28        29   
                  -0.35396  -0.33565  -0.32147  -0.30880  -0.28427  -0.10161
                   2.00000   2.00000   2.00000   2.00000   2.00000   0.00000
                  --------  --------  --------  --------  --------  --------
  0S   1s        -0.008456 -0.001206 -0.000000 -0.000001  0.030744 -0.030133
  0S   2s        -0.054406 -0.007999 -0.000001 -0.000007  0.199664 -0.202055
  0S   3s         0.074472  0.024288  0.000005  0.000011 -0.289400  0.347890
  0S   4s         0.100053 -0.045741 -0.000007  0.000012 -0.352889  0.355057
  0S   1pz       -0.037302 -0.015212 -0.000710 -0.003911  0.107773  0.170680
  0S   1px       -0.017313 -0.006273  0.001129  0.006206  0.050361  0.119517
  0S   1py        0.022664  0.012115 -0.000308 -0.001691 -0.064181  0.044122
  0S   2pz       -0.064283 -0.026123  0.000437 -0.009510  0.195696  0.318035
  0S   2px       -0.029027 -0.013034 -0.000690  0.015096  0.091270  0.222367
  0S   2py        0.042022  0.012507  0.000188 -0.004112 -0.117185  0.080989
  0S   3pz       -0.085363 -0.040481 -0.014664  0.010416  0.210552  0.598400
  0S   3px       -0.046802  0.006718  0.023280 -0.016553  0.102805  0.418513
  0S   3py        0.025512  0.118104 -0.006354  0.004509 -0.109193  0.152817
  0S   1dz2      -0.001996 -0.021234  0.025527 -0.017374 -0.024969  0.004704
  0S   1dxz      -0.044539  0.000627 -0.015393  0.008547 -0.019289  0.023315
  0S   1dyz      -0.032650 -0.020003  0.001734 -0.008260  0.040108 -0.005198
  0S   1dx2y2     0.014454 -0.042841 -0.010709  0.013424 -0.000798 -0.013993
  0S   1dxy      -0.038995  0.011750  0.010850  0.003018  0.024176  0.009033
  1Cl  1s         0.001249 -0.000107 -0.000331  0.001505  0.003146 -0.012625
  1Cl  2s        -0.008237  0.001008  0.002275 -0.010127 -0.020877  0.083134
  1Cl  3s         0.016706 -0.007234 -0.004585  0.021402  0.034771 -0.107478
  1Cl  4s        -0.001985  0.009982 -0.004774 -0.000526  0.021512 -0.240754
  1Cl  1pz       -0.159864 -0.032349 -0.109869  0.163412 -0.103418 -0.025884
  1Cl  1px        0.038753  0.020540  0.018210 -0.068397 -0.113059  0.131853
  1Cl  1py       -0.057392  0.181636  0.167216  0.110178  0.021175  0.011139
  1Cl  2pz       -0.274550 -0.056358 -0.191242  0.285938 -0.180480 -0.046632
  1Cl  2px        0.066174  0.037101  0.031991 -0.120156 -0.197776  0.228826
  1Cl  2py       -0.097869  0.315244  0.291128  0.192844  0.036601  0.018595
  1Cl  3pz       -0.361396 -0.069639 -0.245442  0.363271 -0.246487 -0.076360
  1Cl  3px        0.088796  0.041695  0.044844 -0.155488 -0.270851  0.479551
  1Cl  3py       -0.135531  0.401527  0.375804  0.244239  0.053416  0.045644
  1Cl  1dz2       0.000098  0.000687  0.003589 -0.005281 -0.002792 -0.036916
  1Cl  1dxz       0.019444  0.002436  0.003903 -0.000184 -0.007508 -0.021103
  1Cl  1dyz      -0.000697  0.000058 -0.000175 -0.003797  0.001024 -0.007640
  1Cl  1dx2y2    -0.003977 -0.002378 -0.000744  0.004527  0.001703  0.055370
  1Cl  1dxy       0.006763 -0.012763 -0.007029  0.000469  0.003001  0.009149
  2Cl  1s         0.001249 -0.000107  0.000330 -0.001506  0.003145 -0.012623
  2Cl  2s        -0.008232  0.001005 -0.002273  0.010131 -0.020876  0.083126
  2Cl  3s         0.016698 -0.007228  0.004580 -0.021411  0.034768 -0.107466
  2Cl  4s        -0.001988  0.009981  0.004782  0.000528  0.021511 -0.240734
  2Cl  1pz       -0.027113 -0.039717  0.074087  0.008983 -0.149407  0.098353
  2Cl  1px       -0.172095  0.032254  0.038615 -0.205377 -0.040032 -0.065468
  2Cl  1py        0.000103  0.178420 -0.182731 -0.035537  0.001257  0.064937
  2Cl  2pz       -0.047052 -0.067788  0.128722  0.016139 -0.261059  0.170073
  2Cl  2px       -0.295163  0.055276  0.067295 -0.359561 -0.069823 -0.115357
  2Cl  2py        0.000660  0.310252 -0.318237 -0.062058  0.001701  0.112433
  2Cl  3pz       -0.058922 -0.090114  0.162462  0.022751 -0.357972  0.364707
  2Cl  3px       -0.391615  0.074232  0.086933 -0.457534 -0.093820 -0.220981
  2Cl  3py       -0.004523  0.392605 -0.411787 -0.077100  0.005131  0.236643
  2Cl  1dz2       0.008723  0.004551 -0.004047 -0.004040 -0.004856  0.023064
  2Cl  1dxz       0.014715 -0.002748 -0.002015  0.004420 -0.005370 -0.045569
  2Cl  1dyz       0.001614 -0.010145  0.006060 -0.001916  0.004166  0.039354
  2Cl  1dx2y2    -0.009091  0.005065 -0.004188  0.003782 -0.000274 -0.006978
  2Cl  1dxy       0.007896  0.004258 -0.001856  0.003042 -0.002700 -0.028449
  3O   1s        -0.002739  0.010219 -0.000000 -0.000001  0.012433 -0.006723
  3O   2s        -0.009489  0.023851 -0.000001 -0.000001  0.033024 -0.012167
  3O   3s        -0.005502  0.064031 -0.000001 -0.000005  0.038474 -0.029302
  3O   1pz        0.227653  0.189771 -0.077941 -0.035248 -0.228258 -0.174912
  3O   1px        0.121461  0.145075  0.123768  0.055985 -0.100426 -0.128006
  3O   1py       -0.080372  0.093773 -0.033756 -0.015275  0.158801 -0.065481
  3O   2pz        0.158529  0.121978 -0.045863 -0.022596 -0.169785 -0.172550
  3O   2px        0.085894  0.098062  0.072829  0.035891 -0.076270 -0.123266
  3O   2py       -0.051148  0.077934 -0.019864 -0.009794  0.112364 -0.053552
  3O   1dz2      -0.000296 -0.001822  0.001722  0.000162 -0.002004 -0.001777
  3O   1dxz      -0.000288  0.000818 -0.001348 -0.000321 -0.000854  0.001684
  3O   1dyz       0.004711  0.003371 -0.001018 -0.000807 -0.000438  0.007748
  3O   1dx2y2     0.002294 -0.001563  0.000260  0.000641 -0.002554  0.000161
  3O   1dxy       0.001801  0.003367  0.002400  0.001272  0.001048  0.005488
                     30        31        32        33        34        35   
                  -0.09305  -0.01198   0.31297   0.39958   0.42111   0.43224
                   0.00000   0.00000   0.00000   0.00000   0.00000   0.00000
                  --------  --------  --------  --------  --------  --------
  0S   1s        -0.000001 -0.020986 -0.050581  0.000002 -0.014679  0.031551
  0S   2s        -0.000009 -0.141161 -0.376322  0.000014 -0.106560  0.236324
  0S   3s         0.000012  0.174695  1.629861 -0.000064  0.412602 -1.268088
  0S   4s         0.000027  0.654165 -1.857171  0.000091 -0.436898  2.162072
  0S   1pz        0.122339  0.026469 -0.042731 -0.067297 -0.075562  0.047254
  0S   1px       -0.194270 -0.028974 -0.033238  0.106881 -0.059163  0.046070
  0S   1py        0.052977 -0.167384 -0.023228 -0.029142 -0.042467  0.059867
  0S   2pz        0.226718  0.051946 -0.100338 -0.245404 -0.232028  0.126435
  0S   2px       -0.360019 -0.046546 -0.080684  0.389749 -0.180940  0.124829
  0S   2py        0.098176 -0.290660 -0.064227 -0.106268 -0.127719  0.165947
  0S   3pz        0.432773  0.131819 -0.053622  0.243478  0.117740  0.283813
  0S   3px       -0.687231 -0.215563  0.033374 -0.386666  0.091245  0.139968
  0S   3py        0.187400 -1.094946  0.246262  0.105429  0.062733 -0.142161
  0S   1dz2      -0.055665  0.092870 -0.048473 -0.437284  0.205078  0.124905
  0S   1dxz       0.029642  0.005553 -0.122733  0.226882  0.590644  0.197329
  0S   1dyz      -0.018183  0.023536  0.138901 -0.164789  0.093493 -0.135904
  0S   1dx2y2     0.035832  0.146791  0.097698  0.300506 -0.106172 -0.040427
  0S   1dxy      -0.002493 -0.069445  0.014155  0.012683  0.235690 -0.032013
  1Cl  1s         0.013326 -0.001090  0.033239  0.004075  0.001302  0.038572
  1Cl  2s        -0.088788  0.006819 -0.242655 -0.035151 -0.007894 -0.289459
  1Cl  3s         0.139917 -0.003761  0.805194  0.201801 -0.004511  1.208186
  1Cl  4s         0.199187 -0.004476 -0.489123 -0.173562  0.054729 -1.520332
  1Cl  1pz       -0.043239 -0.009673  0.021442 -0.026848 -0.071928  0.013148
  1Cl  1px       -0.110439  0.001919 -0.009220  0.023488  0.004803  0.022292
  1Cl  1py       -0.023922  0.062921 -0.001826  0.003301 -0.030199  0.026188
  1Cl  2pz       -0.078672 -0.018557  0.054610 -0.071344 -0.191318  0.041124
  1Cl  2px       -0.195519 -0.000761 -0.020416  0.015912  0.027275  0.031010
  1Cl  2py       -0.040641  0.116298 -0.000475  0.004595 -0.078931  0.066025
  1Cl  3pz       -0.128307 -0.027245 -0.012917 -0.002383  0.041516 -0.027551
  1Cl  3px       -0.404774  0.002824 -0.156358  0.095857 -0.071528  0.319101
  1Cl  3py       -0.095522  0.189861 -0.047349 -0.004184  0.010492  0.036854
  1Cl  1dz2       0.016809  0.000317 -0.047823 -0.217154  0.027727 -0.079069
  1Cl  1dxz      -0.034098 -0.012637  0.078080 -0.069740 -0.336097 -0.066710
  1Cl  1dyz      -0.008234  0.007290  0.010547 -0.015534 -0.042076 -0.068253
  1Cl  1dx2y2    -0.038532 -0.004869  0.079505  0.319103 -0.025667  0.077311
  1Cl  1dxy      -0.019859  0.078599  0.001185  0.089431 -0.149148  0.100222
  2Cl  1s        -0.013328 -0.001089  0.033239 -0.004072  0.001303  0.038576
  2Cl  2s         0.088796  0.006816 -0.242649  0.035131 -0.007904 -0.289487
  2Cl  3s        -0.139926 -0.003753  0.805175 -0.201720 -0.004469  1.208299
  2Cl  4s        -0.199213 -0.004483 -0.489111  0.173459  0.054681 -1.520439
  2Cl  1pz        0.108911 -0.017506  0.002415 -0.006969 -0.021984  0.019035
  2Cl  1px        0.006153  0.014358  0.021000  0.030212 -0.074514  0.012945
  2Cl  1py        0.052363  0.059528 -0.010064 -0.017942 -0.008571  0.028740
  2Cl  2pz        0.194191 -0.036358  0.007800  0.020318 -0.046388  0.030095
  2Cl  2px        0.012078  0.027509  0.053933  0.065102 -0.202895  0.048532
  2Cl  2py        0.090669  0.108586 -0.020741 -0.026685 -0.016169  0.061258
  2Cl  3pz        0.383437 -0.054464 -0.128770 -0.081924 -0.044550  0.251915
  2Cl  3px       -0.000369  0.046053  0.027632  0.038075  0.065172 -0.124738
  2Cl  3py        0.206016  0.178077 -0.097524 -0.032322 -0.026781  0.157871
  2Cl  1dz2       0.040590 -0.040126  0.106387 -0.151177 -0.190332 -0.007802
  2Cl  1dxz       0.007052  0.025469 -0.005832  0.222281 -0.224698 -0.066822
  2Cl  1dyz       0.039891  0.054848  0.054320 -0.264571 -0.130545  0.093933
  2Cl  1dx2y2    -0.009594 -0.031465 -0.014044  0.056399  0.129655 -0.088843
  2Cl  1dxy       0.003456 -0.012546  0.017791  0.128929 -0.133549 -0.100730
  3O   1s        -0.000000 -0.091820  0.031015  0.000000 -0.006016 -0.002306
  3O   2s         0.000001 -0.193183  0.098469  0.000002 -0.012467  0.025783
  3O   3s        -0.000007 -0.765136  0.372527 -0.000017  0.065222 -0.463369
  3O   1pz       -0.126093  0.035834  0.088111 -0.037777  0.089966 -0.030083
  3O   1px        0.200231 -0.068321  0.024700  0.060002  0.036990  0.020878
  3O   1py       -0.054603 -0.333297 -0.112879 -0.016352 -0.072070  0.146021
  3O   2pz       -0.124118  0.048697 -0.017205 -0.027238 -0.021679 -0.049769
  3O   2px        0.197096 -0.102523  0.028146  0.043250 -0.016854 -0.077562
  3O   2py       -0.053750 -0.488434  0.142942 -0.011797 -0.011752 -0.169507
  3O   1dz2      -0.003530 -0.000393 -0.017275 -0.009278  0.002035  0.015855
  3O   1dxz       0.003541  0.000199 -0.005441  0.005104  0.010503  0.009661
  3O   1dyz       0.004939 -0.000182 -0.015832 -0.002436 -0.021146  0.015548
  3O   1dx2y2    -0.003004 -0.000839 -0.029960  0.005459 -0.016449  0.024389
  3O   1dxy      -0.009112  0.000406  0.005873 -0.001290 -0.002745 -0.002002
                     36        37        38        39        40        41   
                   0.45564   0.46945   0.50382   0.55931   0.62206   0.64040
                   0.00000   0.00000   0.00000   0.00000   0.00000   0.00000
                  --------  --------  --------  --------  --------  --------
  0S   1s        -0.000000 -0.000001 -0.019359  0.005600  0.000001 -0.007929
  0S   2s        -0.000002 -0.000010 -0.138846  0.047446  0.000010 -0.059092
  0S   3s         0.000013  0.000053  0.526121 -0.279521 -0.000043  0.326514
  0S   4s        -0.000013 -0.000073 -0.627226  0.236309  0.000040 -0.503261
  0S   1pz       -0.000809  0.015686 -0.043466  0.141985 -0.096061  0.117643
  0S   1px        0.001280 -0.024920 -0.037151  0.008720  0.152544  0.088771
  0S   1py       -0.000349  0.006795 -0.035875 -0.295861 -0.041622  0.053725
  0S   2pz        0.009670  0.038736 -0.159723  0.452380 -0.322901  0.403849
  0S   2px       -0.015368 -0.061537 -0.140145  0.025587  0.512764  0.302620
  0S   2py        0.004192  0.016784 -0.145133 -0.950699 -0.139908  0.176671
  0S   3pz       -0.186808  0.066217  0.112675 -0.300126  0.395898 -0.502036
  0S   3px        0.296673 -0.105180  0.142212  0.068740 -0.628657 -0.426938
  0S   3py       -0.080902  0.028657  0.261388  0.944998  0.171550 -0.405659
  0S   1dz2       0.233586  0.093463  0.116537  0.033975  0.140430 -0.021665
  0S   1dxz      -0.182472 -0.135175  0.008712  0.021547 -0.070454  0.079325
  0S   1dyz      -0.136824 -0.282622 -0.612771 -0.053240  0.061655 -0.035715
  0S   1dx2y2     0.034213  0.211067 -0.159428  0.005472 -0.104037 -0.113448
  0S   1dxy       0.323753  0.464573 -0.321264 -0.035433 -0.016941  0.057281
  1Cl  1s         0.040509 -0.032960  0.005345  0.005302 -0.001010  0.006471
  1Cl  2s        -0.302022  0.244026 -0.036764 -0.039876  0.009321 -0.046860
  1Cl  3s         1.175664 -0.905273  0.077261  0.175112 -0.116215  0.100106
  1Cl  4s        -1.226310  0.872777  0.005945 -0.255639  0.335241  0.157010
  1Cl  1pz        0.003025  0.025282 -0.003973  0.019725  0.031783 -0.039117
  1Cl  1px        0.043974 -0.041754  0.011175  0.016148  0.034813  0.101402
  1Cl  1py       -0.038682 -0.035200  0.025080 -0.014117  0.025207 -0.017739
  1Cl  2pz        0.002554  0.069552 -0.008260  0.054121  0.108897 -0.125966
  1Cl  2px        0.114527 -0.133237  0.063331  0.045062  0.127874  0.336592
  1Cl  2py       -0.108528 -0.095962  0.076107 -0.028223  0.087108 -0.055816
  1Cl  3pz        0.032008 -0.028995 -0.014061  0.004604 -0.145788  0.120199
  1Cl  3px        0.047038  0.095510 -0.154754  0.047436 -0.303022 -0.491423
  1Cl  3py        0.061064  0.029013 -0.068808 -0.072237 -0.124169  0.039588
  1Cl  1dz2       0.024646 -0.008790  0.134050  0.006374 -0.007838  0.338774
  1Cl  1dxz       0.109499  0.135357 -0.037542  0.123816 -0.415993  0.035904
  1Cl  1dyz       0.023346 -0.052936 -0.069673 -0.050883 -0.152047  0.431187
  1Cl  1dx2y2     0.127956  0.118117 -0.281235  0.012830 -0.053716 -0.032445
  1Cl  1dxy      -0.168845 -0.217456  0.104291 -0.309119 -0.368255 -0.027967
  2Cl  1s        -0.040508  0.032958  0.005348  0.005301  0.001008  0.006470
  2Cl  2s         0.302017 -0.244006 -0.036782 -0.039872 -0.009310 -0.046852
  2Cl  3s        -1.175650  0.905189  0.077322  0.175093  0.116187  0.100105
  2Cl  4s         1.226306 -0.872666  0.005889 -0.255603 -0.335268  0.156920
  2Cl  1pz       -0.048079  0.015877  0.001881  0.026213 -0.038587  0.072917
  2Cl  1px        0.027568 -0.023615  0.001875  0.005849 -0.024029 -0.076533
  2Cl  1py        0.019171  0.053018  0.027617 -0.011295 -0.028181  0.030754
  2Cl  2pz       -0.124579  0.059610  0.032649  0.070118 -0.139394  0.243111
  2Cl  2px        0.079241 -0.071901 -0.001643  0.019676 -0.079513 -0.249588
  2Cl  2py        0.055681  0.151879  0.093827 -0.021257 -0.100404  0.103932
  2Cl  3pz       -0.040775 -0.061653 -0.122922  0.059584  0.297740 -0.374490
  2Cl  3px       -0.033110  0.048434  0.018132 -0.039922  0.061815  0.294350
  2Cl  3py       -0.064852 -0.068255 -0.115951 -0.048462  0.190033 -0.174551
  2Cl  1dz2      -0.199678 -0.248654 -0.238375  0.207500  0.158688 -0.126655
  2Cl  1dxz       0.017845  0.041142  0.176509 -0.050910  0.372883  0.235675
  2Cl  1dyz       0.044689  0.113358 -0.133629 -0.233042  0.337601  0.101943
  2Cl  1dx2y2    -0.123746 -0.077532 -0.091480  0.098032 -0.161550  0.421051
  2Cl  1dxy      -0.023088 -0.006546  0.002749  0.064247  0.174463  0.211600
  3O   1s        -0.000000  0.000000  0.006244 -0.047433  0.000009 -0.002512
  3O   2s        -0.000001  0.000002  0.030789 -0.187435  0.000039  0.008692
  3O   3s        -0.000000 -0.000001  0.156368  0.464504  0.000020 -0.167072
  3O   1pz       -0.113636 -0.113957 -0.264765  0.024317  0.001661  0.081896
  3O   1px        0.180470  0.180996 -0.191191 -0.051351 -0.002647  0.066493
  3O   1py       -0.049208 -0.049353 -0.089779 -0.244512  0.000692  0.054791
  3O   2pz        0.070549 -0.001150  0.051494 -0.012639 -0.043332 -0.001024
  3O   2px       -0.112044  0.001827  0.047601  0.027894  0.068815 -0.044624
  3O   2py        0.030547 -0.000502  0.055641  0.131527 -0.018712 -0.161470
  3O   1dz2       0.007976 -0.004749 -0.015012 -0.029402  0.002240  0.003847
  3O   1dxz      -0.001624  0.007889  0.005928  0.001051 -0.003992  0.003745
  3O   1dyz       0.012224  0.018107  0.030261  0.004618 -0.009532  0.009931
  3O   1dx2y2    -0.013465 -0.013971 -0.010911 -0.042239  0.007441  0.008106
  3O   1dxy      -0.013782 -0.029114  0.028111  0.028220  0.015190  0.002677
                     42        43        44        45        46        47   
                   0.65019   0.65728   0.65919   0.66559   0.69368   0.71413
                   0.00000   0.00000   0.00000   0.00000   0.00000   0.00000
                  --------  --------  --------  --------  --------  --------
  0S   1s         0.005322 -0.000004 -0.000020  0.006857 -0.008192 -0.000001
  0S   2s         0.034866 -0.000033 -0.000143  0.049365 -0.063109 -0.000004
  0S   3s        -0.014067  0.000172  0.000339 -0.138291  0.427217  0.000066
  0S   4s        -0.309277 -0.000226  0.000514 -0.144391 -0.940782 -0.000276
  0S   1pz        0.015865  0.010027 -0.007090  0.008953  0.136219  0.042493
  0S   1px        0.000105 -0.015804  0.011274 -0.008891  0.103246 -0.067435
  0S   1py       -0.036150  0.004347 -0.002918 -0.053440  0.064132  0.018428
  0S   2pz        0.082141  0.035359 -0.023305  0.049997  0.489275  0.156694
  0S   2px        0.016947 -0.055740  0.036911 -0.016312  0.372226 -0.248662
  0S   2py       -0.127175  0.015325 -0.009552 -0.175819  0.235414  0.067952
  0S   3pz       -0.165406 -0.064993  0.018029 -0.101537 -0.665226 -0.251596
  0S   3px        0.010771  0.102677 -0.028418  0.066918 -0.485693  0.399254
  0S   3py        0.420898 -0.028271  0.006230  0.480430 -0.245116 -0.108918
  0S   1dz2       0.227721  0.002246  0.008495  0.192018  0.126416  0.157888
  0S   1dxz       0.091212  0.000066 -0.004962  0.064492  0.228846 -0.123962
  0S   1dyz      -0.060499  0.005256  0.003632 -0.078594  0.075941 -0.095063
  0S   1dx2y2     0.236229 -0.005429 -0.006948  0.194208  0.050209  0.025466
  0S   1dxy      -0.163461 -0.006465  0.000138 -0.155902  0.064507  0.222587
  1Cl  1s        -0.005140 -0.002875  0.000326 -0.002570 -0.002751  0.001189
  1Cl  2s         0.038472  0.021070 -0.002244  0.019092  0.021991 -0.009600
  1Cl  3s        -0.153487 -0.066546  0.002848 -0.067230 -0.177740  0.076340
  1Cl  4s         0.173858  0.027201  0.009493  0.045552  0.496638 -0.203065
  1Cl  1pz       -0.015454  0.039818  0.002542  0.004728 -0.031604  0.082567
  1Cl  1px       -0.059211 -0.039638  0.012061 -0.042471  0.038851 -0.025953
  1Cl  1py       -0.023796  0.005967 -0.028119 -0.049300 -0.059213 -0.098324
  1Cl  2pz       -0.050047  0.126749  0.008265  0.014093 -0.102097  0.259891
  1Cl  2px       -0.188115 -0.128617  0.039794 -0.136982  0.139073 -0.089377
  1Cl  2py       -0.072989  0.018708 -0.089438 -0.154069 -0.187122 -0.314339
  1Cl  3pz        0.051635 -0.097644 -0.008621 -0.001054  0.105338 -0.179260
  1Cl  3px        0.137369  0.134688 -0.043641  0.133355 -0.385561  0.180545
  1Cl  3py        0.025389 -0.009353  0.070854  0.091805  0.127036  0.276825
  1Cl  1dz2       0.348008  0.390586  0.403437 -0.358296 -0.120914 -0.244683
  1Cl  1dxz      -0.008539 -0.247576 -0.018644 -0.095014  0.200680 -0.385411
  1Cl  1dyz      -0.105457  0.425345 -0.501873  0.423960 -0.294674 -0.036971
  1Cl  1dx2y2     0.378995  0.282853  0.171931 -0.056381 -0.262072 -0.082988
  1Cl  1dxy       0.193605  0.025626  0.214938  0.121323  0.120224  0.318209
  2Cl  1s        -0.005141  0.002880 -0.000302 -0.002570 -0.002751 -0.001191
  2Cl  2s         0.038482 -0.021103  0.002067  0.019092  0.021994  0.009618
  2Cl  3s        -0.153536  0.066605 -0.002216 -0.067210 -0.177763 -0.076453
  2Cl  4s         0.173964 -0.027026 -0.009980  0.045465  0.496678  0.203326
  2Cl  1pz       -0.052284  0.017035 -0.017800 -0.022732  0.032526 -0.038807
  2Cl  1px       -0.000735 -0.050651  0.012558  0.001082 -0.062984 -0.043555
  2Cl  1py       -0.039672  0.018643  0.021687 -0.061122 -0.031484  0.117340
  2Cl  2pz       -0.167153  0.056259 -0.057906 -0.075004  0.115717 -0.116698
  2Cl  2px       -0.002175 -0.162009  0.040296  0.004328 -0.206811 -0.138063
  2Cl  2py       -0.123464  0.060509  0.068477 -0.192434 -0.092934  0.376559
  2Cl  3pz        0.135497 -0.072816  0.056986  0.092460 -0.311252 -0.007391
  2Cl  3px        0.004146  0.135839 -0.034421 -0.014923  0.275999  0.115792
  2Cl  3py        0.061494 -0.064440 -0.050108  0.132142 -0.053257 -0.357843
  2Cl  1dz2       0.106249  0.161964 -0.034129 -0.154196  0.018183  0.371130
  2Cl  1dxz       0.229032 -0.061581 -0.327560 -0.251011  0.145952  0.238618
  2Cl  1dyz       0.218165 -0.300530  0.070957  0.321606 -0.177359 -0.213131
  2Cl  1dx2y2     0.186116 -0.590333  0.066800 -0.041219 -0.413647  0.253872
  2Cl  1dxy      -0.407317  0.080909  0.610051  0.381238  0.021156  0.115794
  3O   1s         0.128771 -0.000010 -0.000341  0.107622  0.095765  0.000038
  3O   2s         0.568450 -0.000036 -0.001488  0.469358  0.431496  0.000154
  3O   3s        -0.122497 -0.000067  0.000163 -0.048008 -0.275296 -0.000031
  3O   1pz        0.019285 -0.019022 -0.035076 -0.007476  0.174708 -0.071171
  3O   1px       -0.021144  0.030329  0.055843 -0.055582  0.073283  0.113016
  3O   1py       -0.122256 -0.008225 -0.014703 -0.187092 -0.134442 -0.030881
  3O   2pz       -0.061592  0.032295  0.035720 -0.042970 -0.077346  0.072165
  3O   2px        0.081117 -0.051324 -0.056798  0.104373  0.032310 -0.114545
  3O   2py        0.440025  0.013880  0.013983  0.482465  0.296863  0.031448
  3O   1dz2      -0.007365  0.001200  0.000669 -0.007347  0.007456  0.006429
  3O   1dxz       0.003657 -0.000685 -0.000527  0.003096  0.006709  0.000568
  3O   1dyz       0.003567  0.000214 -0.000429  0.004762 -0.000280  0.016724
  3O   1dx2y2    -0.011953 -0.000613  0.000166 -0.010848  0.005734 -0.016793
  3O   1dxy       0.010150  0.000316  0.000932  0.010208 -0.002321 -0.021210
                     48        49        50        51        52        53   
                   0.72379   0.73165   0.74527   0.78267   0.82560   0.86000
                   0.00000   0.00000   0.00000   0.00000   0.00000   0.00000
                  --------  --------  --------  --------  --------  --------
  0S   1s         0.003004 -0.000001  0.000806  0.018518  0.000001 -0.000003
  0S   2s         0.021691 -0.000009  0.011813  0.150370  0.000006 -0.000021
  0S   3s        -0.002571  0.000035 -0.041546 -0.800173 -0.000018  0.000137
  0S   4s        -0.378310 -0.000129 -0.443958  0.640136 -0.000043 -0.000271
  0S   1pz       -0.036920 -0.112426  0.037154 -0.097041 -0.003472  0.025100
  0S   1px        0.000448  0.178635  0.044632 -0.070038  0.005510 -0.039783
  0S   1py        0.086434 -0.048702  0.078192 -0.032806 -0.001500  0.010946
  0S   2pz       -0.112638 -0.397564  0.117436 -0.370721 -0.012082  0.087753
  0S   2px        0.017734  0.631676  0.157106 -0.251749  0.019173 -0.139033
  0S   2py        0.323500 -0.172217  0.306062 -0.067324 -0.005219  0.038280
  0S   3pz       -0.081347  0.476782 -0.190697  0.342217 -0.207341 -0.044453
  0S   3px       -0.055881 -0.757391 -0.133808  0.285729  0.329259  0.070701
  0S   3py       -0.014998  0.206528 -0.051618  0.257915 -0.089767 -0.019516
  0S   1dz2       0.191906  0.025029  0.047506 -0.125460  0.057037 -0.269119
  0S   1dxz       0.155739 -0.020513 -0.072143 -0.322436  0.039455  0.195862
  0S   1dyz      -0.019804 -0.017935  0.104844  0.209715  0.274712  0.106553
  0S   1dx2y2     0.154007  0.006579  0.183222  0.176757 -0.258484  0.004469
  0S   1dxy      -0.075333  0.039601 -0.050077 -0.021234 -0.373899 -0.299511
  1Cl  1s        -0.000017 -0.005232 -0.001697  0.004306  0.002128 -0.000249
  1Cl  2s         0.000438  0.040675  0.013080 -0.034563 -0.015299  0.001484
  1Cl  3s        -0.023361 -0.236785 -0.080521  0.219430  0.060247  0.009348
  1Cl  4s         0.098838  0.481091  0.191790 -0.445835 -0.131792 -0.041076
  1Cl  1pz       -0.136866 -0.023308  0.150107 -0.090796 -0.072151  0.201004
  1Cl  1px       -0.019617  0.063331  0.044005  0.164667 -0.157802  0.064627
  1Cl  1py        0.138526 -0.094694  0.119460 -0.062612 -0.109152 -0.101965
  1Cl  2pz       -0.436813 -0.069847  0.479927 -0.295778 -0.237465  0.668660
  1Cl  2px       -0.059360  0.215650  0.144746  0.517073 -0.508497  0.209880
  1Cl  2py        0.442680 -0.299180  0.382331 -0.204246 -0.362638 -0.343207
  1Cl  3pz        0.354436  0.003214 -0.386066  0.247553  0.228246 -0.613179
  1Cl  3px       -0.013734 -0.386616 -0.209940 -0.242198  0.481350 -0.158181
  1Cl  3py       -0.366587  0.195256 -0.320028  0.184816  0.348651  0.332583
  1Cl  1dz2      -0.078476  0.129054  0.069819  0.025530 -0.097532  0.010515
  1Cl  1dxz       0.276376  0.127220 -0.248851 -0.085333  0.011454  0.158554
  1Cl  1dyz       0.055267  0.183959 -0.033370 -0.070640 -0.050825 -0.013295
  1Cl  1dx2y2     0.074149 -0.255962 -0.079046 -0.021622  0.141721  0.029165
  1Cl  1dxy      -0.248156  0.187226 -0.206769  0.026089 -0.154448 -0.181892
  2Cl  1s        -0.000013  0.005228 -0.001701  0.004307 -0.002128  0.000250
  2Cl  2s         0.000405 -0.040644  0.013113 -0.034570  0.015297 -0.001495
  2Cl  3s        -0.023147  0.236650 -0.080696  0.219465 -0.060246 -0.009354
  2Cl  4s         0.098372 -0.480889  0.192113 -0.445903  0.131807  0.041205
  2Cl  1pz       -0.112258 -0.065465  0.079035  0.113738  0.142897 -0.171980
  2Cl  1px       -0.058686  0.078038  0.156947 -0.160203  0.045443 -0.111323
  2Cl  1py        0.149203  0.056141  0.088591  0.025966  0.139784  0.114661
  2Cl  2pz       -0.355640 -0.221899  0.256080  0.354013  0.460211 -0.568658
  2Cl  2px       -0.188256  0.248918  0.500489 -0.515023  0.154733 -0.370709
  2Cl  2py        0.477895  0.172493  0.285105  0.077158  0.459084  0.386919
  2Cl  3pz        0.237499  0.374762 -0.283264 -0.136339 -0.435988  0.496171
  2Cl  3px        0.172265 -0.214717 -0.373593  0.367640 -0.151434  0.345776
  2Cl  3py       -0.417249 -0.031315 -0.275297  0.018571 -0.438605 -0.383546
  2Cl  1dz2       0.322360  0.185664 -0.151617 -0.071477 -0.171771 -0.189137
  2Cl  1dxz      -0.014824 -0.286931 -0.157789 -0.013689  0.152073 -0.018987
  2Cl  1dyz      -0.097835 -0.051499 -0.204264 -0.029013  0.036760  0.121212
  2Cl  1dx2y2     0.062116  0.027495  0.148665 -0.022639 -0.032409 -0.058287
  2Cl  1dxy       0.187317 -0.216988 -0.071384 -0.086146  0.033833 -0.071428
  3O   1s         0.039476  0.000034  0.089734  0.029228  0.000003 -0.000006
  3O   2s         0.103636  0.000164  0.367837  0.107402  0.000003 -0.000098
  3O   3s         0.165821 -0.000111 -0.119184  0.015563  0.000030  0.000203
  3O   1pz       -0.193085 -0.204414  0.038583 -0.106899 -0.169839  0.001499
  3O   1px       -0.135048  0.324858 -0.044989 -0.149908  0.269714 -0.000380
  3O   1py       -0.049948 -0.088650 -0.253213 -0.302995 -0.073562  0.000350
  3O   2pz        0.181213  0.153729 -0.040119  0.095078  0.308399  0.048715
  3O   2px        0.219198 -0.244342  0.135527  0.202339 -0.489758 -0.080285
  3O   2py        0.385753  0.066741  0.588926  0.522482  0.133596  0.021801
  3O   1dz2       0.016084 -0.001965  0.012016  0.009794  0.018099 -0.002773
  3O   1dxz       0.006648 -0.000174 -0.005679 -0.012621 -0.018889 -0.002786
  3O   1dyz       0.004569 -0.005101  0.006685 -0.016328 -0.028027 -0.016390
  3O   1dx2y2     0.021245  0.005127  0.025933  0.015784  0.017745  0.015331
  3O   1dxy      -0.008166  0.006471 -0.011783 -0.022754  0.050702  0.022857
                     54        55        56        57        58        59   
                   0.86043   0.90320   0.91001   0.94878   1.02193   1.04431
                   0.00000   0.00000   0.00000   0.00000   0.00000   0.00000
                  --------  --------  --------  --------  --------  --------
  0S   1s        -0.001424 -0.000000  0.000772 -0.010436 -0.000001  0.007329
  0S   2s        -0.011418 -0.000003  0.009179 -0.094044 -0.000005  0.045426
  0S   3s         0.066986  0.000056 -0.204785  0.755401 -0.000043  0.248377
  0S   4s        -0.121065 -0.000199  0.603331 -0.884904  0.000155 -0.983821
  0S   1pz        0.014293  0.004596  0.039037  0.132373 -0.092679 -0.061329
  0S   1px        0.020889 -0.007311 -0.006170  0.080528  0.147207 -0.058599
  0S   1py        0.043197  0.002030 -0.112745 -0.010369 -0.040127 -0.073386
  0S   2pz        0.060924  0.015011  0.138237  0.561735 -0.388854 -0.207077
  0S   2px        0.083074 -0.023884 -0.032267  0.317710  0.617621 -0.238856
  0S   2py        0.162567  0.006655 -0.437466 -0.132076 -0.168345 -0.398217
  0S   3pz        0.047945 -0.099331 -0.040938 -1.059202  0.610564  0.017874
  0S   3px       -0.002101  0.157744  0.094877 -0.711355 -0.969659  0.217572
  0S   3py       -0.117721 -0.043116  0.442183 -0.162817  0.264290  0.757290
  0S   1dz2       0.000261  0.006229 -0.321475 -0.041732  0.261988  0.334710
  0S   1dxz      -0.347657  0.012208 -0.091329 -0.220711 -0.155646  0.161419
  0S   1dyz      -0.338689  0.058556  0.137470  0.119579  0.026538  0.039526
  0S   1dx2y2     0.090906 -0.052828 -0.335034  0.174082 -0.117596  0.394228
  0S   1dxy      -0.347699 -0.082967  0.273897 -0.062150  0.098555 -0.175410
  1Cl  1s         0.000343  0.001225  0.000606 -0.000551  0.009452 -0.010060
  1Cl  2s        -0.002303 -0.009347 -0.005316  0.005633 -0.070190  0.077926
  1Cl  3s        -0.001978  0.048116  0.061030 -0.125011  0.184759 -0.344027
  1Cl  4s         0.028830 -0.094312 -0.196787  0.505118  0.124840  0.397621
  1Cl  1pz       -0.094567  0.092762 -0.072747 -0.063692  0.104950  0.033468
[...]
Number of perturbation per batch  ...            3
Number of batches                 ...            1
Storage mode                      ...       InCore

Transforming the overlap derivative matrices     ... done   (      0.0 sec)

------------------------
Batching info for step 1
------------------------
Number of perturbation per batch  ...            3
Number of batches                 ...            1
Storage mode                      ...       InCore

Making the Q(x) pseudodensities                  ... done   (      0.0 sec)
Adding the E*S(x)*S(y) terms to the Hessian      ... done   (      0.0 sec)
Calculating energy weighted overlap derivatives  ... done   (      0.0 sec)

------------------------
Batching info for step 3
------------------------
Number of perturbation per batch  ...            3
Number of batches                 ...            1
Storage mode                      ...       InCore

Two electron integral derivatives (RI)           ... done   (      0.3 sec)

------------------------
Batching info for step 4
------------------------
Number of perturbation per batch  ...            3
Number of batches                 ...            1
Storage mode                      ...       InCore

Exchange-correlation integral derivatives        ... done   (      1.4 sec)
tr(F(y)Q(x)) contribution to the Hessian         ... done   (      0.0 sec)

------------------------
Batching info for step 5
------------------------
Number of perturbation per batch  ...            3
Number of batches                 ...            1
Storage mode                      ...       InCore

Response fock operator R(S(x)) (RI)              ... (RIJ)done   (      0.3 sec)

------------------------
Batching info for step 6
------------------------
Number of perturbation per batch  ...            3
Number of batches                 ...            1
Storage mode                      ...       InCore

XC Response fock operator R(S(x))                ... done   (      0.4 sec)
tr(F(y)S(x)) contribution to the Hessian         ... done   (      0.0 sec)
Transforming and finalizing RHSs                 ... done   (      0.0 sec)

----------------------------------------------
Solving the CP-SCF equations (RI)                ...
----------------------------------------------
     CP-SCF ITERATION   0: 
     CP-SCF ITERATION   1:      0.021979333458
     CP-SCF ITERATION   2:      0.001236587812
     CP-SCF ITERATION   3:      0.000045629106
     CP-SCF ITERATION   4:      0.000003456329
     CP-SCF ITERATION   5:      0.000000430736
     CP-SCF ITERATION   6:      0.000000018487
     CP-SCF ITERATION   7:      0.000000008674

                                                 ... done   (      4.5 sec)
Forming perturbed density Hessian contributions  ... done   (      0.0 sec)
Making the perturbed densities                   ... done   (      0.0 sec)
2nd integral derivative contribs (RI)            ... done   (      0.5 sec)
Exchange-correlation Hessian                     ... done   (      1.9 sec)
Dispersion correction in the Hessian             ... 
The revPBE functional is recognized
Active option DFTDOPT                   ...         5   



------------------- 
Dispersion Gradient 
------------------- 
   1  :   -0.000110369   -0.000019590   -0.000169712
   2  :    0.001555607    0.000224191   -0.000495861
   3  :   -0.000901765    0.000894889    0.001052494
   4  :   -0.000540923   -0.001097095   -0.000383726

  |G| =    0.007446219


The revPBE functional is recognized
Active option DFTDOPT                   ...         5   



------------------- 
Dispersion Gradient 
------------------- 
   1  :   -0.000113807   -0.000019570   -0.000169390
   2  :    0.001558369    0.000224533   -0.000495723
   3  :   -0.000901168    0.000894632    0.001052012
   4  :   -0.000540636   -0.001097204   -0.000383735

  |G| =    0.007450780


The revPBE functional is recognized
Active option DFTDOPT                   ...         5   



------------------- 
Dispersion Gradient 
------------------- 
   1  :   -0.000112247   -0.000019873   -0.000169551
   2  :    0.001557022    0.000225809   -0.000495850
   3  :   -0.000901576    0.000894014    0.001052318
   4  :   -0.000540536   -0.001097552   -0.000383737

  |G| =    0.007450086


The revPBE functional is recognized
Active option DFTDOPT                   ...         5   



------------------- 
Dispersion Gradient 
------------------- 
   1  :   -0.000111925   -0.000019285   -0.000169549
   2  :    0.001556941    0.000222912   -0.000495733
   3  :   -0.000901354    0.000895505    0.001052186
   4  :   -0.000541019   -0.001096744   -0.000383724

  |G| =    0.007446878


The revPBE functional is recognized
Active option DFTDOPT                   ...         5   



------------------- 
Dispersion Gradient 
------------------- 
   1  :   -0.000111864   -0.000020077   -0.000170526
   2  :    0.001556719    0.000224429   -0.000496400
   3  :   -0.000901437    0.000894935    0.001054390
   4  :   -0.000540786   -0.001096858   -0.000384216

  |G| =    0.007452637


The revPBE functional is recognized
Active option DFTDOPT                   ...         5   



------------------- 
Dispersion Gradient 
------------------- 
   1  :   -0.000112305   -0.000019083   -0.000168579
   2  :    0.001557244    0.000224295   -0.000495182
   3  :   -0.000901492    0.000894583    0.001050116
   4  :   -0.000540773   -0.001097437   -0.000383243

  |G| =    0.007444331


Dispersion correction Hessian from Numerical Differentiation: 
                  0          1          2          3          4          5    
      0       0.000344   0.000000   0.000000   0.000000  -0.000032   0.000000
      1       0.000000   0.000000   0.000000   0.000000  -0.000059   0.000000
      2       0.000000   0.000000   0.000000   0.000000  -0.000000   0.000000
      3       0.000000   0.000000   0.000000   0.000000   0.000008   0.000000
      4      -0.000032  -0.000059  -0.000000   0.000008   0.000290   0.000000
      5       0.000000   0.000000   0.000000   0.000000   0.000000   0.000000
      6       0.000000   0.000000   0.000000   0.000000   0.000000   0.000000
      7       0.000000   0.000000   0.000000   0.000000   0.000000   0.000000
      8       0.000044  -0.000099  -0.000195  -0.000052   0.000013  -0.000122
      9       0.000000   0.000000   0.000000   0.000000   0.000000   0.000000
     10       0.000000   0.000000   0.000000   0.000000   0.000000   0.000000
     11       0.000000   0.000000   0.000000   0.000000   0.000000   0.000000
                  6          7          8          9         10         11    
      0       0.000000   0.000000   0.000044   0.000000   0.000000   0.000000
      1       0.000000   0.000000  -0.000099   0.000000   0.000000   0.000000
      2       0.000000   0.000000  -0.000195   0.000000   0.000000   0.000000
      3       0.000000   0.000000  -0.000052   0.000000   0.000000   0.000000
      4       0.000000   0.000000   0.000013   0.000000   0.000000   0.000000
      5       0.000000   0.000000  -0.000122   0.000000   0.000000   0.000000
      6       0.000000   0.000000   0.000005   0.000000   0.000000   0.000000
      7       0.000000   0.000000   0.000035   0.000000   0.000000   0.000000
      8       0.000005   0.000035   0.000427   0.000000   0.000000   0.000000
      9       0.000000   0.000000   0.000000   0.000000   0.000000   0.000000
     10       0.000000   0.000000   0.000000   0.000000   0.000000   0.000000
     11       0.000000   0.000000   0.000000   0.000000   0.000000   0.000000

done   (      0.3 sec)
gCP correction in the Hessian                    ...  
-----------------
gCP hessian 
from Numerical Differentiation: 
-----------------
                  0          1          2          3          4          5    
      0      -0.000197   0.000648  -0.000286  -0.001025  -0.000189  -0.000080
      1       0.000648   0.001652   0.000230  -0.000189   0.000305  -0.000011
      2      -0.000286   0.000230  -0.000748  -0.000080  -0.000011   0.000327
      3      -0.001025  -0.000189  -0.000080   0.001390   0.000344  -0.000060
      4      -0.000189   0.000305  -0.000011   0.000344  -0.000291   0.000046
      5      -0.000080  -0.000011   0.000327  -0.000060   0.000046  -0.000395
      6       0.000241   0.000169   0.000298  -0.000160   0.000059   0.000136
      7       0.000169   0.000016  -0.000557   0.000059   0.000041  -0.000037
      8       0.000298  -0.000557  -0.000651   0.000136  -0.000037  -0.000029
      9       0.000981  -0.000628   0.000069  -0.000205  -0.000214   0.000004
     10      -0.000628  -0.001973   0.000338  -0.000214  -0.000055   0.000003
     11       0.000069   0.000338   0.001072   0.000004   0.000003   0.000097
                  6          7          8          9         10         11    
      0       0.000241   0.000169   0.000298   0.000981  -0.000628   0.000069
      1       0.000169   0.000016  -0.000557  -0.000628  -0.001973   0.000338
      2       0.000298  -0.000557  -0.000651   0.000069   0.000338   0.001072
      3      -0.000160   0.000059   0.000136  -0.000205  -0.000214   0.000004
      4       0.000059   0.000041  -0.000037  -0.000214  -0.000055   0.000003
      5       0.000136  -0.000037  -0.000029   0.000004   0.000003   0.000097
      6      -0.000175  -0.000260  -0.000456   0.000094   0.000033   0.000022
      7      -0.000260   0.000155   0.000803   0.000033  -0.000212  -0.000209
      8      -0.000456   0.000803   0.000724   0.000022  -0.000209  -0.000044
      9       0.000094   0.000033   0.000022  -0.000870   0.000809  -0.000095
     10       0.000033  -0.000212  -0.000209   0.000809   0.002240  -0.000131
     11       0.000022  -0.000209  -0.000044  -0.000095  -0.000131  -0.001125

done   (      0.0 sec)
Dipol derivatives                                ... done   (      0.1 sec)

-------
TIMINGS
-------

Total SCF Hessian time: 0 days 0 hours 0 min 10 sec 
                   F(y)            G[Q(x)]           CPSCF         Total
Table01         0.3  0.03         0.3  0.03         4.5  0.43        10.4 
Table01a        0.3  0.03,        0.3, 0.03,        4.5  0.43        10.4 
Table01b        0.3   2.6,        0.3,  2.7,        4.5  43.0        10.4 

Writing the Hessian file to the disk             ... done


Maximum memory used throughout the entire calculation: 132.3 MB

-----------------------
VIBRATIONAL FREQUENCIES
-----------------------

Scaling factor for frequencies =  1.000000000  (already applied!)

   0:         0.00 cm**-1
   1:         0.00 cm**-1
   2:         0.00 cm**-1
   3:         0.00 cm**-1
   4:         0.00 cm**-1
   5:         0.00 cm**-1
   6:       152.11 cm**-1
   7:       241.74 cm**-1
   8:       294.07 cm**-1
   9:       391.28 cm**-1
  10:       431.51 cm**-1
  11:      1196.16 cm**-1


------------
NORMAL MODES
------------

These modes are the Cartesian displacements weighted by the diagonal matrix
M(i,i)=1/sqrt(m[i]) where m[i] is the mass of the displaced atom
Thus, these vectors are normalized but *not* orthogonal

                  0          1          2          3          4          5    
      0       0.000000   0.000000   0.000000   0.000000   0.000000   0.000000
      1       0.000000   0.000000   0.000000   0.000000   0.000000   0.000000
      2       0.000000   0.000000   0.000000   0.000000   0.000000   0.000000
      3       0.000000   0.000000   0.000000   0.000000   0.000000   0.000000
      4       0.000000   0.000000   0.000000   0.000000   0.000000   0.000000
      5       0.000000   0.000000   0.000000   0.000000   0.000000   0.000000
      6       0.000000   0.000000   0.000000   0.000000   0.000000   0.000000
      7       0.000000   0.000000   0.000000   0.000000   0.000000   0.000000
      8       0.000000   0.000000   0.000000   0.000000   0.000000   0.000000
      9       0.000000   0.000000   0.000000   0.000000   0.000000   0.000000
     10       0.000000   0.000000   0.000000   0.000000   0.000000   0.000000
     11       0.000000   0.000000   0.000000   0.000000   0.000000   0.000000
                  6          7          8          9         10         11    
      0       0.179681  -0.013976   0.023204   0.638266  -0.419696  -0.087053
      1       0.222688   0.004128   0.346791  -0.174338  -0.034023  -0.440714
      2       0.189013   0.008383  -0.113894  -0.402644  -0.650477   0.052640
      3       0.355261   0.298184  -0.310280  -0.305976   0.310535   0.001860
      4      -0.281322   0.205908  -0.182477   0.044607  -0.021929   0.002885
      5      -0.424387  -0.002942   0.057635  -0.028932   0.104290  -0.000750
      6      -0.595466   0.033559   0.093166  -0.102050  -0.030406  -0.000239
      7      -0.022018  -0.296926  -0.291768   0.066985   0.071262   0.003495
      8       0.174276  -0.206057  -0.195799   0.286483   0.318762   0.000581
      9       0.172225  -0.707122   0.434616  -0.374838   0.220268   0.170851
     10       0.225949   0.193420   0.355977   0.102069  -0.041141   0.868999
     11       0.175475   0.446334   0.534393   0.236129   0.366014  -0.105109


-----------
IR SPECTRUM
-----------

 Mode    freq (cm**-1)   T**2         TX         TY         TZ
-------------------------------------------------------------------
   6:       152.11    0.281932  (  0.269361   0.371169   0.267601)
   7:       241.74    6.272257  ( -2.066318   0.564527   1.297651)
   8:       294.07    7.978433  (  0.662344   2.741739  -0.150331)
   9:       391.28  143.548316  (  9.875113  -2.697358  -6.225328)
  10:       431.51   51.067663  ( -4.051032  -2.248725  -5.440591)
  11:      1196.16  117.425432  ( -4.497794  -9.362708  -3.087876)

The first frequency considered to be a vibration is 6
The total number of vibrations considered is 6


--------------------------
THERMOCHEMISTRY AT 298.15K
--------------------------

Temperature         ... 298.15 K
Pressure            ... 1.00 atm
Total Mass          ... 118.97 AMU

Throughout the following assumptions are being made:
  (1) The electronic state is orbitally nondegenerate
  (2) There are no thermally accessible electronically excited states
  (3) Hindered rotations indicated by low frequency modes are not
      treated as such but are treated as vibrations and this may
      cause some error
  (4) All equations used are the standard statistical mechanics
      equations for an ideal gas
  (5) All vibrations are strictly harmonic

freq.     152.11  E(vib)   ...       0.40 
freq.     241.74  E(vib)   ...       0.31 
freq.     294.07  E(vib)   ...       0.27 
freq.     391.28  E(vib)   ...       0.20 
freq.     431.51  E(vib)   ...       0.18 
freq.    1196.16  E(vib)   ...       0.01 

------------
INNER ENERGY
------------

The inner energy is: U= E(el) + E(ZPE) + E(vib) + E(rot) + E(trans)
    E(el)   - is the total energy from the electronic structure calculation
              = E(kin-el) + E(nuc-el) + E(el-el) + E(nuc-nuc)
    E(ZPE)  - the the zero temperature vibrational energy from the frequency calculation
    E(vib)  - the the finite temperature correction to E(ZPE) due to population
              of excited vibrational states
    E(rot)  - is the rotational thermal energy
    E(trans)- is the translational thermal energy

Summary of contributions to the inner energy U:
Electronic energy                ...  -1393.05342968 Eh
Zero point energy                ...      0.00616670 Eh       3.87 kcal/mol
Thermal vibrational correction   ...      0.00218047 Eh       1.37 kcal/mol
Thermal rotational correction    ...      0.00141627 Eh       0.89 kcal/mol
Thermal translational correction ...      0.00141627 Eh       0.89 kcal/mol
-----------------------------------------------------------------------
Total thermal energy                  -1393.04224997 Eh


Summary of corrections to the electronic energy:
(perhaps to be used in another calculation)
Total thermal correction                  0.00501302 Eh       3.15 kcal/mol
Non-thermal (ZPE) correction              0.00616670 Eh       3.87 kcal/mol
-----------------------------------------------------------------------
Total correction                          0.01117972 Eh       7.02 kcal/mol


--------
ENTHALPY
--------

The enthalpy is H = U + kB*T
                kB is Boltzmann's constant
Total free energy                 ...  -1393.04224997 Eh 
Thermal Enthalpy correction       ...      0.00094421 Eh       0.59 kcal/mol
-----------------------------------------------------------------------
Total Enthalpy                    ...  -1393.04130576 Eh


Note: Only C1 symmetry has been detected, increase convergence thresholds 
      if your molecule has a higher symmetry. Symmetry factor of 1.0 is   
      used for the rotational entropy correction. 
 

Note: Rotational entropy computed according to Herzberg 
Infrared and Raman Spectra, Chapter V,1, Van Nostrand Reinhold, 1945 
Point Group:  C1, Symmetry Number:   1  
Rotational constants in cm-1:     0.154049     0.082894     0.057803 

Vibrational entropy computed according to the QRRHO of S. Grimme
Chem.Eur.J. 2012 18 9955


-------
ENTROPY
-------

The entropy contributions are T*S = T*(S(el)+S(vib)+S(rot)+S(trans))
     S(el)   - electronic entropy
     S(vib)  - vibrational entropy
     S(rot)  - rotational entropy
     S(trans)- translational entropy
The entropies will be listed as mutliplied by the temperature to get
units of energy

Electronic entropy                ...      0.00000000 Eh      0.00 kcal/mol
Vibrational entropy               ...      0.00368615 Eh      2.31 kcal/mol
Rotational entropy                ...      0.01291524 Eh      8.10 kcal/mol
Translational entropy             ...      0.01911719 Eh     12.00 kcal/mol
-----------------------------------------------------------------------
Final entropy term                ...      0.03571858 Eh     22.41 kcal/mol

In case the symmetry of your molecule has not been determined correctly
or in case you have a reason to use a different symmetry number we print 
out the resulting rotational entropy values for sn=1,12 :
 --------------------------------------------------------
|  sn= 1 | S(rot)=       0.01291524 Eh      8.10 kcal/mol|
|  sn= 2 | S(rot)=       0.01226078 Eh      7.69 kcal/mol|
|  sn= 3 | S(rot)=       0.01187795 Eh      7.45 kcal/mol|
|  sn= 4 | S(rot)=       0.01160633 Eh      7.28 kcal/mol|
|  sn= 5 | S(rot)=       0.01139564 Eh      7.15 kcal/mol|
|  sn= 6 | S(rot)=       0.01122349 Eh      7.04 kcal/mol|
|  sn= 7 | S(rot)=       0.01107795 Eh      6.95 kcal/mol|
|  sn= 8 | S(rot)=       0.01095187 Eh      6.87 kcal/mol|
|  sn= 9 | S(rot)=       0.01084066 Eh      6.80 kcal/mol|
|  sn=10 | S(rot)=       0.01074118 Eh      6.74 kcal/mol|
|  sn=11 | S(rot)=       0.01065119 Eh      6.68 kcal/mol|
|  sn=12 | S(rot)=       0.01056904 Eh      6.63 kcal/mol|
 --------------------------------------------------------


-------------------
GIBBS FREE ENERGY
-------------------

The Gibbs free energy is G = H - T*S

Total enthalpy                    ...  -1393.04130576 Eh 
Total entropy correction          ...     -0.03571858 Eh    -22.41 kcal/mol
-----------------------------------------------------------------------
Final Gibbs free energy         ...  -1393.07702433 Eh

For completeness - the Gibbs free energy minus the electronic energy
G-E(el)                           ...     -0.02359465 Eh    -14.81 kcal/mol


Timings for individual modules:

Sum of individual times         ...       64.413 sec (=   1.074 min)
GTO integral calculation        ...        6.817 sec (=   0.114 min)  10.6 %
SCF iterations                  ...       36.615 sec (=   0.610 min)  56.8 %
SCF Gradient evaluation         ...        9.739 sec (=   0.162 min)  15.1 %
Geometry relaxation             ...        0.190 sec (=   0.003 min)   0.3 %
Analytical frequency calculation...       11.052 sec (=   0.184 min)  17.2 %
                             ****ORCA TERMINATED NORMALLY****
TOTAL RUN TIME: 0 days 0 hours 1 minutes 5 seconds 853 msec
