
                                 *****************
                                 * O   R   C   A *
                                 *****************

           --- An Ab Initio, DFT and Semiempirical electronic structure package ---

                  #######################################################
                  #                        -***-                        #
                  #          Department of theory and spectroscopy      #
                  #               Directorship: Frank Neese             #
                  #        Max Planck Institute fuer Kohlenforschung    #
                  #                Kaiser Wilhelm Platz 1               #
                  #                 D-45470 Muelheim/Ruhr               #
                  #                      Germany                        #
                  #                                                     #
                  #                  All rights reserved                #
                  #                        -***-                        #
                  #######################################################


                         Program Version 4.2.1 -  RELEASE  -


 With contributions from (in alphabetic order):
   Daniel Aravena         : Magnetic Suceptibility
   Michael Atanasov       : Ab Initio Ligand Field Theory (pilot matlab implementation)
   Alexander A. Auer      : GIAO ZORA, VPT2
   Ute Becker             : Parallelization
   Giovanni Bistoni       : ED, misc. LED, open-shell LED, HFLD
   Martin Brehm           : Molecular dynamics
   Dmytro Bykov           : SCF Hessian
   Vijay G. Chilkuri      : MRCI spin determinant printing, contributions to CSF-ICE
   Dipayan Datta          : RHF DLPNO-CCSD density
   Achintya Kumar Dutta   : EOM-CC, STEOM-CC
   Dmitry Ganyushin       : Spin-Orbit,Spin-Spin,Magnetic field MRCI
   Miquel Garcia          : C-PCM Hessian, Gaussian charge scheme
   Yang Guo               : DLPNO-NEVPT2, CIM, IAO-localization
   Andreas Hansen         : Spin unrestricted coupled pair/coupled cluster methods
   Benjamin Helmich-Paris : CASSCF linear response (MC-RPA)
   Lee Huntington         : MR-EOM, pCC
   Robert Izsak           : Overlap fitted RIJCOSX, COSX-SCS-MP3, EOM
   Christian Kollmar      : KDIIS, OOCD, Brueckner-CCSD(T), CCSD density
   Simone Kossmann        : Meta GGA functionals, TD-DFT gradient, OOMP2, MP2 Hessian
   Martin Krupicka        : AUTO-CI
   Lucas Lang             : DCDCAS
   Dagmar Lenk            : GEPOL surface, SMD
   Dimitrios Liakos       : Extrapolation schemes; Compound Job, initial MDCI parallelization
   Dimitrios Manganas     : Further ROCIS development; embedding schemes
   Dimitrios Pantazis     : SARC Basis sets
   Taras Petrenko         : DFT Hessian,TD-DFT gradient, ASA, ECA, R-Raman, ABS, FL, XAS/XES, NRVS
   Peter Pinski           : DLPNO-MP2, DLPNO-MP2 Gradient
   Christoph Reimann      : Effective Core Potentials
   Marius Retegan         : Local ZFS, SOC
   Christoph Riplinger    : Optimizer, TS searches, QM/MM, DLPNO-CCSD(T), (RO)-DLPNO pert. Triples
   Tobias Risthaus        : Range-separated hybrids, TD-DFT gradient, RPA, STAB
   Michael Roemelt        : Original ROCIS implementation
   Masaaki Saitow         : Open-shell DLPNO-CCSD energy and density
   Barbara Sandhoefer     : DKH picture change effects
   Avijit Sen             : IP-ROCIS
   Kantharuban Sivalingam : CASSCF convergence, NEVPT2, FIC-MRCI
   Bernardo de Souza      : ESD, SOC TD-DFT
   Georgi Stoychev        : AutoAux, RI-MP2 NMR
   Willem Van den Heuvel  : Paramagnetic NMR
   Boris Wezisla          : Elementary symmetry handling
   Frank Wennmohs         : Technical directorship


 We gratefully acknowledge several colleagues who have allowed us to
 interface, adapt or use parts of their codes:
   Stefan Grimme, W. Hujo, H. Kruse,             : VdW corrections, initial TS optimization,
                  C. Bannwarth                     DFT functionals, gCP, sTDA/sTD-DF
   Ed Valeev, F. Pavosevic, A. Kumar             : LibInt (2-el integral package), F12 methods
   Garnet Chan, S. Sharma, J. Yang, R. Olivares  : DMRG
   Ulf Ekstrom                                   : XCFun DFT Library
   Mihaly Kallay                                 : mrcc  (arbitrary order and MRCC methods)
   Andreas Klamt, Michael Diedenhofen            : otool_cosmo (COSMO solvation model)
   Jiri Pittner, Ondrej Demel                    : Mk-CCSD
   Frank Weinhold                                : gennbo (NPA and NBO analysis)
   Christopher J. Cramer and Donald G. Truhlar   : smd solvation model
   Lars Goerigk                                  : TD-DFT with DH, B97 family of functionals
   V. Asgeirsson, H. Jonsson                     : NEB implementation
   FAccTs GmbH                                   : IRC, NEB, NEB-TS, Multilevel, MM, QM/MM, CI optimization
   S Lehtola, MJT Oliveira, MAL Marques          : LibXC Library


 Your calculation uses the libint2 library for the computation of 2-el integrals
 For citations please refer to: http://libint.valeyev.net

 Your ORCA version has been built with support for libXC version: 4.2.3
 For citations please refer to: https://tddft.org/programs/libxc/

 This ORCA versions uses:
   CBLAS   interface :  Fast vector & matrix operations
   LAPACKE interface :  Fast linear algebra routines
   SCALAPACK package :  Parallel linear algebra routines


Your calculation utilizes the geometrical counterpoise correction gCP
Please cite in your paper:
H.Kruse, S. Grimme J.Chem.Phys., 136, (2012), 154101 
   

Your calculation utilizes the atom-pairwise dispersion correction
based on tight binding partial charges (D4)
Cite in your paper:
E.Caldeweyher, C.Bannwarth, S.Grimme, J.Chem.Phys., (2017), 147, 034112.
E.Caldeweyher, S.Ehlert, A.Hansen, H.Neugebauer, S.Grimme, J.Chem.Phys., (2018), in progress.
   

----- Orbital basis set information -----
Your calculation utilizes the basis: def2-SVP
   F. Weigend and R. Ahlrichs, Phys. Chem. Chem. Phys. 7, 3297 (2005).

----- AuxJ basis set information -----
Your calculation utilizes the auxiliary basis: def2/J
   F. Weigend, Phys. Chem. Chem. Phys. 8, 1057 (2006).

================================================================================
                                        WARNINGS
                       Please study these warnings very carefully!
================================================================================


WARNING: Geometry Optimization
  ===> : Switching off AutoStart
         For restart on a previous wavefunction, please use MOREAD

INFO   : the flag for use of LIBINT has been found!

================================================================================
                                       INPUT FILE
================================================================================
NAME = cubane.inp
|  1> ! revPBE D4 gCP(DFT/SVP) def2-SVP Opt Freq TightOpt TightSCF Grid4 FinalGrid5 LargePrint
|  2> 
|  3> %pal
|  4>  nprocs 12
|  5> end
|  6> 
|  7> *xyz 0 1
|  8> C        0.5231484543      1.4508453899     -0.5235734691                 
|  9> C        0.6698854776      2.1094554246      0.8703788432                 
| 10> C       -0.6479096415      0.6128511328      0.0068269536                 
| 11> C       -0.5311764622      1.2765953666      1.3890752296                 
| 12> C       -0.4207879299      2.5992742044     -0.9655699475                 
| 13> H        1.4822203454      1.1145450232     -0.9716849774                 
| 14> C       -1.5929122423      1.7564875113     -0.4452070471                 
| 15> H       -1.0180584877     -0.3719759754     -0.3468862602                 
| 16> C       -1.4447175223      2.4262179817      0.9432827782                 
| 17> H       -0.3379144982      0.8956507528      2.4135439279                 
| 18> C       -0.2447212199      3.2542927130      0.4145567018                 
| 19> H        1.7140131921      2.1510708419      1.2469194300                 
| 20> H       -2.4020592098      2.7753353502      1.3852480857                 
| 21> H       -2.6387437154      1.7021466144     -0.8153446394                 
| 22> H       -0.1982427599      2.9190435946     -2.0049097158                 
| 23> H       -0.2903937249      4.3002764680      0.7831191555                 
| 24> *
| 25> 
| 26>                          ****END OF INPUT****
================================================================================

                       *****************************
                       * Geometry Optimization Run *
                       *****************************

Geometry optimization settings:
Update method            Update   .... BFGS
Choice of coordinates    CoordSys .... Z-matrix Internals
Initial Hessian          InHess   .... Almoef's Model

Convergence Tolerances:
Energy Change            TolE     ....  1.0000e-06 Eh
Max. Gradient            TolMAXG  ....  1.0000e-04 Eh/bohr
RMS Gradient             TolRMSG  ....  3.0000e-05 Eh/bohr
Max. Displacement        TolMAXD  ....  1.0000e-03 bohr
RMS Displacement         TolRMSD  ....  6.0000e-04 bohr
Strict Convergence                ....  False
------------------------------------------------------------------------------
                        ORCA OPTIMIZATION COORDINATE SETUP
------------------------------------------------------------------------------

The optimization will be done in new redundant internal coordinates
Making redundant internal coordinates   ...  (new redundants) done
Evaluating the initial hessian          ...  (Almloef) done
Evaluating the coordinates              ...  done
Calculating the B-matrix                .... done
Calculating the G-matrix                .... done
Diagonalizing the G-matrix              .... done
The first mode is                       ....  134
The number of degrees of freedom        ....   42

    -----------------------------------------------------------------
                    Redundant Internal Coordinates


    -----------------------------------------------------------------
         Definition                    Initial Value    Approx d2E/dq
    -----------------------------------------------------------------
      1. B(C   1,C   0)                  1.5487         0.348802   
      2. B(C   2,C   0)                  1.5346         0.367342   
      3. B(C   3,C   1)                  1.5509         0.345982   
      4. B(C   3,C   2)                  1.5378         0.363038   
      5. B(C   4,C   0)                  1.5509         0.345976   
      6. B(H   5,C   0)                  1.1107         0.333695   
      7. B(C   6,C   2)                  1.5509         0.345975   
      8. B(C   6,C   4)                  1.5346         0.367339   
      9. B(H   7,C   2)                  1.1100         0.334642   
     10. B(C   8,C   6)                  1.5487         0.348801   
     11. B(C   8,C   3)                  1.5346         0.367349   
     12. B(H   9,C   3)                  1.1100         0.334644   
     13. B(C  10,C   8)                  1.5509         0.345982   
     14. B(C  10,C   4)                  1.5378         0.363035   
     15. B(C  10,C   1)                  1.5346         0.367344   
     16. B(H  11,C   1)                  1.1107         0.333697   
     17. B(H  12,C   8)                  1.1107         0.333696   
     18. B(H  13,C   6)                  1.1107         0.333697   
     19. B(H  14,C   4)                  1.1100         0.334643   
     20. B(H  15,C  10)                  1.1100         0.334643   
     21. A(C   1,C   0,C   2)           89.6238         0.358097   
     22. A(C   1,C   0,C   4)           89.9586         0.354472   
     23. A(C   1,C   0,H   5)          114.2099         0.316733   
     24. A(C   4,C   0,H   5)          129.4024         0.316314   
     25. A(C   2,C   0,H   5)          129.2735         0.319418   
     26. A(C   2,C   0,C   4)           92.2011         0.357602   
     27. A(C   0,C   1,C   3)           89.9587         0.354473   
     28. A(C   0,C   1,C  10)           89.6239         0.358097   
     29. A(C  10,C   1,H  11)          129.2723         0.319419   
     30. A(C   0,C   1,H  11)          114.2134         0.316734   
     31. A(C   3,C   1,H  11)          129.4007         0.316315   
     32. A(C   3,C   1,C  10)           92.2015         0.357603   
     33. A(C   0,C   2,H   7)          128.9655         0.319566   
     34. A(C   0,C   2,C   3)           90.9768         0.360544   
     35. A(C   3,C   2,H   7)          134.0048         0.318952   
     36. A(C   0,C   2,C   6)           87.7975         0.357602   
     37. A(C   3,C   2,C   6)           89.4247         0.356886   
     38. A(C   6,C   2,H   7)          110.9892         0.316460   
     39. A(C   1,C   3,H   9)          110.9872         0.316461   
     40. A(C   8,C   3,H   9)          128.9683         0.319567   
     41. A(C   2,C   3,H   9)          134.0038         0.318952   
     42. A(C   2,C   3,C   8)           90.9765         0.360546   
     43. A(C   1,C   3,C   8)           87.7970         0.357604   
     44. A(C   1,C   3,C   2)           89.4244         0.356887   
     45. A(C   6,C   4,C  10)           90.9772         0.360544   
     46. A(C   0,C   4,C  10)           89.4243         0.356886   
     47. A(C   0,C   4,C   6)           87.7974         0.357602   
     48. A(C  10,C   4,H  14)          134.0039         0.318952   
     49. A(C   6,C   4,H  14)          128.9674         0.319566   
     50. A(C   0,C   4,H  14)          110.9873         0.316460   
     51. A(C   2,C   6,C   4)           92.2010         0.357601   
     52. A(C   8,C   6,H  13)          114.2065         0.316733   
     53. A(C   2,C   6,H  13)          129.4035         0.316314   
     54. A(C   4,C   6,C   8)           89.6233         0.358096   
     55. A(C   4,C   6,H  13)          129.2755         0.319418   
     56. A(C   2,C   6,C   8)           89.9580         0.354471   
     57. A(C   6,C   8,C  10)           89.9592         0.354473   
     58. A(C   3,C   8,C  10)           92.2016         0.357604   
     59. A(C   3,C   8,C   6)           89.6245         0.358098   
     60. A(C  10,C   8,H  12)          129.3997         0.316315   
     61. A(C   6,C   8,H  12)          114.2172         0.316733   
     62. A(C   3,C   8,H  12)          129.2697         0.319419   
     63. A(C   1,C  10,C   4)           90.9769         0.360544   
     64. A(C   8,C  10,H  15)          110.9849         0.316461   
     65. A(C   4,C  10,H  15)          134.0028         0.318952   
     66. A(C   1,C  10,H  15)          128.9707         0.319567   
     67. A(C   4,C  10,C   8)           89.4240         0.356887   
     68. A(C   1,C  10,C   8)           87.7969         0.357603   
     69. D(H  11,C   1,C   0,C   4)   -134.6823         0.009808   
     70. D(C   3,C   1,C   0,C   4)     91.2392         0.009808   
     71. D(C   3,C   1,C   0,H   5)   -134.6818         0.009808   
     72. D(H  11,C   1,C   0,C   2)    133.1163         0.009808   
     73. D(C  10,C   1,C   0,H   5)    133.1164         0.009808   
     74. D(C  10,C   1,C   0,C   2)    -93.1641         0.009808   
     75. D(C  10,C   1,C   0,C   4)     -0.9627         0.009808   
     76. D(H  11,C   1,C   0,H   5)     -0.6033         0.009808   
     77. D(C   3,C   1,C   0,C   2)     -0.9623         0.009808   
     78. D(C   3,C   2,C   0,C   4)    -88.9735         0.010797   
     79. D(C   3,C   2,C   0,H   5)    122.5965         0.010797   
     80. D(C   6,C   2,C   0,C   1)     90.3572         0.010797   
     81. D(C   6,C   2,C   0,H   5)   -148.0168         0.010797   
     82. D(H   7,C   2,C   0,C   4)    115.8754         0.010797   
     83. D(C   3,C   2,C   0,C   1)      0.9706         0.010797   
     84. D(H   7,C   2,C   0,H   5)    -32.5545         0.010797   
     85. D(H   7,C   2,C   0,C   1)   -154.1805         0.010797   
     86. D(C   6,C   2,C   0,C   4)      0.4131         0.010797   
     87. D(C   8,C   3,C   1,H  11)    147.9437         0.009663   
     88. D(C   1,C   3,C   2,C   0)     -0.9693         0.010562   
     89. D(C   2,C   3,C   1,H  11)   -121.0569         0.009663   
     90. D(H   9,C   3,C   1,C   0)    138.7131         0.009663   
     91. D(C   8,C   3,C   1,C  10)     -0.4171         0.009663   
     92. D(C   2,C   3,C   1,C  10)     90.5823         0.009663   
     93. D(C   8,C   3,C   2,C   0)     86.8175         0.010562   
     94. D(H   9,C   3,C   1,H  11)     16.6960         0.009663   
     95. D(C   8,C   3,C   1,C   0)    -90.0392         0.009663   
     96. D(H   9,C   3,C   1,C  10)   -131.6648         0.009663   
     97. D(C   1,C   3,C   2,H   7)    152.0137         0.010562   
     98. D(H   9,C   3,C   2,C   6)    152.0176         0.010562   
     99. D(H   9,C   3,C   2,H   7)     32.7878         0.010562   
    100. D(C   2,C   3,C   1,C   0)      0.9603         0.009663   
    101. D(H   9,C   3,C   2,C   0)   -120.1952         0.010562   
    102. D(C   8,C   3,C   2,H   7)   -120.1995         0.010562   
    103. D(C   8,C   3,C   2,C   6)     -0.9697         0.010562   
    104. D(C   1,C   3,C   2,C   6)    -88.7565         0.010562   
    105. D(H  14,C   4,C   0,H   5)     16.7004         0.009662   
    106. D(H  14,C   4,C   0,C   2)   -131.6645         0.009662   
    107. D(H  14,C   4,C   0,C   1)    138.7135         0.009662   
    108. D(C  10,C   4,C   0,H   5)   -121.0525         0.009662   
    109. D(C  10,C   4,C   0,C   2)     90.5826         0.009662   
    110. D(C  10,C   4,C   0,C   1)      0.9607         0.009662   
    111. D(C   6,C   4,C   0,C   1)    -90.0394         0.009662   
    112. D(C   6,C   4,C   0,H   5)    147.9474         0.009662   
    113. D(C   6,C   4,C   0,C   2)     -0.4175         0.009662   
    114. D(H  13,C   6,C   4,C  10)    122.5922         0.010797   
    115. D(H  13,C   6,C   4,C   0)   -148.0216         0.010797   
    116. D(C   8,C   6,C   4,H  14)   -154.1830         0.010797   
    117. D(C   8,C   6,C   4,C   0)     90.3566         0.010797   
    118. D(C   2,C   6,C   4,H  14)    115.8735         0.010797   
    119. D(C   2,C   6,C   4,C  10)    -88.9731         0.010797   
    120. D(C   2,C   6,C   4,C   0)      0.4131         0.010797   
    121. D(H  13,C   6,C   2,H   7)     16.7073         0.009662   
    122. D(H  13,C   6,C   2,C   0)    147.9527         0.009662   
    123. D(C   8,C   6,C   2,C   0)    -90.0389         0.009662   
    124. D(C   4,C   6,C   2,H   7)   -131.6629         0.009662   
    125. D(C   4,C   6,C   2,C   3)     90.5822         0.009662   
    126. D(C   8,C   6,C   4,C  10)      0.9704         0.010797   
    127. D(C   4,C   6,C   2,C   0)     -0.4175         0.009662   
    128. D(C   8,C   6,C   2,C   3)      0.9608         0.009662   
    129. D(C   8,C   6,C   2,H   7)    138.7157         0.009662   
    130. D(H  13,C   6,C   4,H  14)    -32.5612         0.010797   
    131. D(H  13,C   6,C   2,C   3)   -121.0476         0.009662   
    132. D(H  12,C   8,C   6,H  13)     -0.6029         0.009808   
    133. D(H  12,C   8,C   6,C   4)    133.1173         0.009808   
    134. D(C  10,C   8,C   6,H  13)   -134.6823         0.009808   
    135. D(C  10,C   8,C   6,C   4)     -0.9621         0.009808   
    136. D(C  10,C   8,C   6,C   2)     91.2392         0.009808   
    137. D(C   3,C   8,C   6,C   4)    -93.1641         0.009808   
    138. D(C   3,C   8,C   6,C   2)     -0.9628         0.009808   
    139. D(H  12,C   8,C   3,H   9)    -32.5476         0.010797   
    140. D(H  12,C   8,C   3,C   2)    122.6059         0.010797   
    141. D(H  12,C   8,C   3,C   1)   -148.0077         0.010797   
    142. D(C   3,C   8,C   6,H  13)    133.1157         0.009808   
    143. D(C  10,C   8,C   3,H   9)    115.8729         0.010797   
    144. D(C  10,C   8,C   3,C   2)    -88.9736         0.010797   
    145. D(C  10,C   8,C   3,C   1)      0.4127         0.010797   
    146. D(H  12,C   8,C   6,C   2)   -134.6814         0.009808   
    147. D(C   6,C   8,C   3,H   9)   -154.1824         0.010797   
    148. D(C   6,C   8,C   3,C   2)      0.9711         0.010797   
    149. D(C   6,C   8,C   3,C   1)     90.3575         0.010797   
    150. D(H  15,C  10,C   8,H  12)     16.6881         0.009663   
    151. D(H  15,C  10,C   8,C   3)   -131.6668         0.009663   
    152. D(C   4,C  10,C   8,H  12)   -121.0624         0.009663   
    153. D(C   4,C  10,C   8,C   6)      0.9601         0.009663   
    154. D(C   1,C  10,C   8,H  12)    147.9378         0.009663   
    155. D(C   1,C  10,C   8,C   6)    -90.0397         0.009663   
    156. D(C   1,C  10,C   8,C   3)     -0.4171         0.009663   
    157. D(H  15,C  10,C   4,H  14)     32.7962         0.010561   
    158. D(H  15,C  10,C   4,C   6)   -120.1906         0.010561   
    159. D(H  15,C  10,C   4,C   0)    152.0222         0.010561   
    160. D(C   8,C  10,C   4,H  14)    152.0177         0.010561   
    161. D(C   8,C  10,C   4,C   6)     -0.9691         0.010561   
    162. D(C   8,C  10,C   4,C   0)    -88.7563         0.010561   
    163. D(C   1,C  10,C   4,H  14)   -120.1956         0.010561   
    164. D(C   1,C  10,C   4,C   6)     86.8175         0.010561   
    165. D(C   1,C  10,C   4,C   0)     -0.9696         0.010561   
    166. D(H  15,C  10,C   1,H  11)    -32.5551         0.010797   
    167. D(H  15,C  10,C   1,C   3)    115.8705         0.010797   
    168. D(H  15,C  10,C   1,C   0)   -154.1853         0.010797   
    169. D(C   8,C  10,C   1,H  11)   -148.0128         0.010797   
    170. D(C   4,C  10,C   8,C   3)     90.5827         0.009663   
    171. D(C   8,C  10,C   1,C   3)      0.4127         0.010797   
    172. D(C   8,C  10,C   1,C   0)     90.3569         0.010797   
    173. D(C   4,C  10,C   1,H  11)    122.6013         0.010797   
    174. D(H  15,C  10,C   8,C   6)    138.7106         0.009663   
    175. D(C   4,C  10,C   1,C   3)    -88.9732         0.010797   
    176. D(C   4,C  10,C   1,C   0)      0.9710         0.010797   
    -----------------------------------------------------------------

Number of atoms                         .... 16
Number of degrees of freedom            .... 176

         *************************************************************
         *                GEOMETRY OPTIMIZATION CYCLE   1            *
         *************************************************************
---------------------------------
CARTESIAN COORDINATES (ANGSTROEM)
---------------------------------
  C      0.523148    1.450845   -0.523573
  C      0.669885    2.109455    0.870379
  C     -0.647910    0.612851    0.006827
  C     -0.531176    1.276595    1.389075
  C     -0.420788    2.599274   -0.965570
  H      1.482220    1.114545   -0.971685
  C     -1.592912    1.756488   -0.445207
  H     -1.018058   -0.371976   -0.346886
  C     -1.444718    2.426218    0.943283
  H     -0.337914    0.895651    2.413544
  C     -0.244721    3.254293    0.414557
  H      1.714013    2.151071    1.246919
  H     -2.402059    2.775335    1.385248
  H     -2.638744    1.702147   -0.815345
  H     -0.198243    2.919044   -2.004910
  H     -0.290394    4.300276    0.783119

----------------------------
CARTESIAN COORDINATES (A.U.)
----------------------------
  NO LB      ZA    FRAG     MASS         X           Y           Z
   0 C     6.0000    0    12.011    0.988607    2.741700   -0.989410
   1 C     6.0000    0    12.011    1.265900    3.986293    1.644778
   2 C     6.0000    0    12.011   -1.224372    1.158121    0.012901
   3 C     6.0000    0    12.011   -1.003778    2.412416    2.624972
   4 C     6.0000    0    12.011   -0.795174    4.911916   -1.824663
   5 H     1.0000    0     1.008    2.800991    2.106185   -1.836218
   6 C     6.0000    0    12.011   -3.010168    3.319280   -0.841319
   7 H     1.0000    0     1.008   -1.923852   -0.702933   -0.655520
   8 C     6.0000    0    12.011   -2.730120    4.584888    1.782546
   9 H     1.0000    0     1.008   -0.638566    1.692535    4.560937
  10 C     6.0000    0    12.011   -0.462456    6.149722    0.783399
  11 H     1.0000    0     1.008    3.239016    4.064935    2.356336
  12 H     1.0000    0     1.008   -4.539234    5.244624    2.617740
  13 H     1.0000    0     1.008   -4.986503    3.216591   -1.540778
  14 H     1.0000    0     1.008   -0.374625    5.516193   -3.788730
  15 H     1.0000    0     1.008   -0.548765    8.126345    1.479881

--------------------------------
INTERNAL COORDINATES (ANGSTROEM)
--------------------------------
 C      0   0   0     0.000000000000     0.00000000     0.00000000
 C      1   0   0     1.548677494116     0.00000000     0.00000000
 C      1   2   0     1.534580088191    89.62380928     0.00000000
 C      3   1   2     1.537788457349    90.97680133     0.97060841
 C      1   2   3     1.550891848682    89.95862789    92.20142277
 H      1   2   3     1.110729828902   114.20991018   226.28043991
 C      5   1   2     1.534582145699    87.79743573   269.96055853
 H      3   1   2     1.109958395169   128.96545011   205.81954922
 C      4   3   1     1.534574968962    90.97653998    86.81748268
 H      4   3   1     1.109957251118   134.00384005   239.80479276
 C      2   1   3     1.534578656379    89.62391076   266.83592011
 H      2   1   3     1.110728292901   114.21340181   133.11627132
 H      9   4   3     1.110729209415   129.26974786   122.60592242
 H      7   5   1     1.110728697944   129.27550105   211.97839281
 H      5   1   2     1.109957643142   110.98734886   138.71353093
 H     11   2   1     1.109957781050   128.97066881   205.81469672

---------------------------
INTERNAL COORDINATES (A.U.)
---------------------------
 C      0   0   0     0.000000000000     0.00000000     0.00000000
 C      1   0   0     2.926576333646     0.00000000     0.00000000
 C      1   2   0     2.899936097249    89.62380928     0.00000000
 C      3   1   2     2.905999036296    90.97680133     0.97060841
 C      1   2   3     2.930760857340    89.95862789    92.20142277
 H      1   2   3     2.098975185401   114.20991018   226.28043991
 C      5   1   2     2.899939985376    87.79743573   269.96055853
 H      3   1   2     2.097517386916   128.96545011   205.81954922
 C      4   3   1     2.899926423308    90.97653998    86.81748268
 H      4   3   1     2.097515224973   134.00384005   239.80479276
 C      2   1   3     2.899933391517    89.62391076   266.83592011
 H      2   1   3     2.098972282782   114.21340181   133.11627132
 H      9   4   3     2.098974014741   129.26974786   122.60592242
 H      7   5   1     2.098973048201   129.27550105   211.97839281
 H      5   1   2     2.097515965791   110.98734886   138.71353093
 H     11   2   1     2.097516226400   128.97066881   205.81469672

---------------------
BASIS SET INFORMATION
---------------------
There are 2 groups of distinct atoms

 Group   1 Type C   : 7s4p1d contracted to 3s2p1d pattern {511/31/1}
 Group   2 Type H   : 4s1p contracted to 2s1p pattern {31/1}

Atom   0C    basis set group =>   1
Atom   1C    basis set group =>   1
Atom   2C    basis set group =>   1
Atom   3C    basis set group =>   1
Atom   4C    basis set group =>   1
Atom   5H    basis set group =>   2
Atom   6C    basis set group =>   1
Atom   7H    basis set group =>   2
Atom   8C    basis set group =>   1
Atom   9H    basis set group =>   2
Atom  10C    basis set group =>   1
Atom  11H    basis set group =>   2
Atom  12H    basis set group =>   2
Atom  13H    basis set group =>   2
Atom  14H    basis set group =>   2
Atom  15H    basis set group =>   2

-------------------------
BASIS SET IN INPUT FORMAT
-------------------------

 # Basis set for element : H 
 NewGTO H 
 S 3 
   1      13.0107010000      0.0334854848
   2       1.9622572000      0.2347218709
   3       0.4445379600      0.8137702853
 S 1 
   1       0.1219496200      1.0000000000
 P 1 
   1       0.8000000000      1.0000000000
  end;

 # Basis set for element : C 
 NewGTO C 
 S 5 
   1    1238.4016938000      0.0055173650
   2     186.2900499200      0.0410888285
   3      42.2511763460      0.1822538213
   4      11.6765579320      0.4682845944
   5       3.5930506482      0.4457581734
 S 1 
   1       0.4024514736      1.0000000000
 S 1 
   1       0.1309018267      1.0000000000
 P 3 
   1       9.4680970621      0.0568883320
   2       2.0103545142      0.3129405934
   3       0.5477100471      0.7606501651
 P 1 
   1       0.1526861379      1.0000000000
 D 1 
   1       0.8000000000      1.0000000000
  end;

---------------------------------
AUXILIARY/J BASIS SET INFORMATION
---------------------------------
There are 2 groups of distinct atoms

 Group   1 Type C   : 12s5p4d2f1g contracted to 6s4p3d1f1g pattern {711111/2111/211/2/1}
 Group   2 Type H   : 5s2p1d contracted to 3s1p1d pattern {311/2/1}

Atom   0C    basis set group =>   1
Atom   1C    basis set group =>   1
Atom   2C    basis set group =>   1
Atom   3C    basis set group =>   1
Atom   4C    basis set group =>   1
Atom   5H    basis set group =>   2
Atom   6C    basis set group =>   1
Atom   7H    basis set group =>   2
Atom   8C    basis set group =>   1
Atom   9H    basis set group =>   2
Atom  10C    basis set group =>   1
Atom  11H    basis set group =>   2
Atom  12H    basis set group =>   2
Atom  13H    basis set group =>   2
Atom  14H    basis set group =>   2
Atom  15H    basis set group =>   2

-------------------------------------
AUXILIARY/J BASIS SET IN INPUT FORMAT
-------------------------------------

 # Auxiliary/J basis set for element : H 
 NewAuxJGTO H 
 S 3 
   1      15.6752927000      0.1007184237
   2       3.6063578000      0.3404257499
   3       1.2080016000      0.6491996172
 S 1 
   1       0.4726794000      1.0000000000
 S 1 
   1       0.2018100000      1.0000000000
 P 2 
   1       2.0281365000      0.5596620919
   2       0.5358730000      0.5596620919
 D 1 
   1       2.2165124000      1.0000000000
  end;

 # Auxiliary/J basis set for element : C 
 NewAuxJGTO C 
 S 7 
   1    1861.0916331000      0.0134602335
   2     642.9939764000      0.0299160374
   3     235.1105725000      0.1008649584
   4      90.7028894000      0.2370970548
   5      36.7794552000      0.3924037254
   6      15.6046273000      0.3195862154
   7       6.8907294000      0.0530104441
 S 1 
   1       3.1478850000     -1.0000000000
 S 1 
   1       1.4777287000      1.0000000000
 S 1 
   1       0.7076466000      1.0000000000
 S 1 
   1       0.3430122000      1.0000000000
 S 1 
   1       0.1669453000      1.0000000000
 P 2 
   1      13.5472892000     -0.6769313712
   2       5.4669419000     -0.3779500978
 P 1 
   1       2.1751721000      1.0000000000
 P 1 
   1       0.8582194000      1.0000000000
 P 1 
   1       0.3376720000      1.0000000000
 D 2 
   1       5.9287253000     -0.3533329857
   2       1.9809209000     -0.7456525731
 D 1 
   1       0.8055417000     -1.0000000000
 D 1 
   1       0.3531244000     -1.0000000000
 F 2 
   1       1.6755626000      0.6311076882
   2       0.5997536000      0.4968166032
 G 1 
   1       1.0024600000     -1.0000000000
  end;



           ************************************************************
           *        Program running with 12 parallel MPI-processes    *
           *              working on a common directory               *
           ************************************************************
------------------------------------------------------------------------------
                           ORCA GTO INTEGRAL CALCULATION
                           -- RI-GTO INTEGRALS CHOSEN --
------------------------------------------------------------------------------

                         BASIS SET STATISTICS AND STARTUP INFO

Gaussian basis set:
 # of primitive gaussian shells          ...  136
 # of primitive gaussian functions       ...  248
 # of contracted shells                  ...   72
 # of contracted basis functions         ...  152
 Highest angular momentum                ...    2
 Maximum contraction depth               ...    5
Auxiliary gaussian basis set:
 # of primitive gaussian shells          ...  256
 # of primitive gaussian functions       ...  688
 # of contracted shells                  ...  160
 # of contracted aux-basis functions     ...  480
 Highest angular momentum                ...    4
 Maximum contraction depth               ...    7
Ratio of auxiliary to basis functions    ...  3.16
Integral package used                  ... LIBINT
 One Electron integrals                  ... done
 Ordering auxiliary basis shells         ... done
 Integral threshhold             Thresh  ...  2.500e-11
 Primitive cut-off               TCut    ...  2.500e-12
 Pre-screening matrix                    ... done
 Shell pair data                         ... 
 Ordering of the shell pairs             ... done (   0.000 sec) 2600 of 2628 pairs
 Determination of significant pairs      ... done (   0.000 sec)
 Creation of shell pair data             ... done (   0.001 sec)
 Storage of shell pair data              ... done (   0.004 sec)
 Shell pair data done in (   0.005 sec)
 Computing two index integrals           ... done
 Cholesky decomposition of the V-matrix  ... done


Timings:
 Total evaluation time                   ...   0.246 sec (  0.004 min)
 One electron matrix time                ...   0.030 sec (  0.001 min) = 12.4%
 Schwartz matrix evaluation time         ...   0.159 sec (  0.003 min) = 64.4%
 Two index repulsion integral time       ...   0.011 sec (  0.000 min) =  4.4%
 Cholesky decomposition of V             ...   0.020 sec (  0.000 min) =  8.1%
 Three index repulsion integral time     ...   0.000 sec (  0.000 min) =  0.1%



           ************************************************************
           *        Program running with 12 parallel MPI-processes    *
           *              working on a common directory               *
           ************************************************************
-------------------------------------------------------------------------------
                                 ORCA SCF
-------------------------------------------------------------------------------

------------
SCF SETTINGS
------------
Hamiltonian:
 Density Functional     Method          .... DFT(GTOs)
 Exchange Functional    Exchange        .... PBE
   PBE kappa parameter   XKappa         ....  1.245000
   PBE mue parameter    XMuePBE         ....  0.219520
 Correlation Functional Correlation     .... PBE
   PBE beta parameter  CBetaPBE         ....  0.066725
 LDA part of GGA corr.  LDAOpt          .... PW91-LDA
 Gradients option       PostSCFGGA      .... off
   Density functional embedding theory  .... OFF
   NL short-range parameter             ....  3.700000
 RI-approximation to the Coulomb term is turned on
   Number of auxiliary basis functions  .... 480


General Settings:
 Integral files         IntName         .... cubane
 Hartree-Fock type      HFTyp           .... RHF
 Total Charge           Charge          ....    0
 Multiplicity           Mult            ....    1
 Number of Electrons    NEL             ....   56
 Basis Dimension        Dim             ....  152
 Nuclear Repulsion      ENuc            ....    372.2160471081 Eh

Convergence Acceleration:
 DIIS                   CNVDIIS         .... on
   Start iteration      DIISMaxIt       ....    12
   Startup error        DIISStart       ....  0.200000
   # of expansion vecs  DIISMaxEq       ....     5
   Bias factor          DIISBfac        ....   1.050
   Max. coefficient     DIISMaxC        ....  10.000
 Newton-Raphson         CNVNR           .... off
 SOSCF                  CNVSOSCF        .... on
   Start iteration      SOSCFMaxIt      ....   150
   Startup grad/error   SOSCFStart      ....  0.003300
 Level Shifting         CNVShift        .... on
   Level shift para.    LevelShift      ....    0.2500
   Turn off err/grad.   ShiftErr        ....    0.0010
 Zerner damping         CNVZerner       .... off
 Static damping         CNVDamp         .... on
   Fraction old density DampFac         ....    0.7000
   Max. Damping (<1)    DampMax         ....    0.9800
   Min. Damping (>=0)   DampMin         ....    0.0000
   Turn off err/grad.   DampErr         ....    0.1000
 Fernandez-Rico         CNVRico         .... off

SCF Procedure:
 Maximum # iterations   MaxIter         ....   125
 SCF integral mode      SCFMode         .... Direct
   Integral package                     .... LIBINT
 Reset frequency        DirectResetFreq ....    20
 Integral Threshold     Thresh          ....  2.500e-11 Eh
 Primitive CutOff       TCut            ....  2.500e-12 Eh

Convergence Tolerance:
 Convergence Check Mode ConvCheckMode   .... Total+1el-Energy
 Convergence forced     ConvForced      .... 0
 Energy Change          TolE            ....  1.000e-08 Eh
 1-El. energy change                    ....  1.000e-05 Eh
 Orbital Gradient       TolG            ....  1.000e-05
 Orbital Rotation angle TolX            ....  1.000e-05
 DIIS Error             TolErr          ....  5.000e-07


Diagonalization of the overlap matrix:
Smallest eigenvalue                        ... 2.093e-05
Time for diagonalization                   ...    0.006 sec
Threshold for overlap eigenvalues          ... 1.000e-08
Number of eigenvalues below threshold      ... 0
Time for construction of square roots      ...    0.009 sec
Total time needed                          ...    0.015 sec

-------------------
DFT GRID GENERATION
-------------------

General Integration Accuracy     IntAcc      ...  4.670
Radial Grid Type                 RadialGrid  ... Gauss-Chebyshev
Angular Grid (max. acc.)         AngularGrid ... Lebedev-302
Angular grid pruning method      GridPruning ... 3 (G Style)
Weight generation scheme         WeightScheme... Becke
Basis function cutoff            BFCut       ...    1.0000e-11
Integration weight cutoff        WCut        ...    1.0000e-14
Grids for H and He will be reduced by one unit

# of grid points (after initial pruning)     ...  76848 (   0.0 sec)
# of grid points (after weights+screening)   ...  68729 (   0.1 sec)
nearest neighbour list constructed           ...    0.0 sec
Grid point re-assignment to atoms done       ...    0.0 sec
Grid point division into batches done        ...    0.3 sec
Reduced shell lists constructed in    0.3 sec

Total number of grid points                  ...    68729
Total number of batches                      ...     1085
Average number of points per batch           ...       63
Average number of grid points per atom       ...     4296
Average number of shells per batch           ...    64.79 (89.99%)
Average number of basis functions per batch  ...   140.64 (92.53%)
Average number of large shells per batch     ...    56.47 (87.15%)
Average number of large basis fcns per batch ...   122.75 (87.28%)
Maximum spatial batch extension              ...   2.39,  1.97,  2.06 au
Average spatial batch extension              ...   0.08,  0.09,  0.08 au

Time for grid setup =    0.578 sec

------------------------------
INITIAL GUESS: MODEL POTENTIAL
------------------------------
Loading Hartree-Fock densities                     ... done
Calculating cut-offs                               ... done
Setting up the integral package                    ... done
Initializing the effective Hamiltonian             ... done
Starting the Coulomb interaction                   ... done (   0.0 sec)
Reading the grid                                   ... done
Mapping shells                                     ... done
Starting the XC term evaluation                    ... done (   0.2 sec)
  promolecular density results
     # of electrons  =     55.995977613
     EX              =    -43.655616049
     EC              =     -1.898758012
     EX+EC           =    -45.554374061
Transforming the Hamiltonian                       ... done (   0.0 sec)
Diagonalizing the Hamiltonian                      ... done (   0.0 sec)
Back transforming the eigenvectors                 ... done (   0.0 sec)
Now organizing SCF variables                       ... done
                      ------------------
                      INITIAL GUESS DONE (   1.0 sec)
                      ------------------
----------------------
INITIAL GUESS ORBITALS
----------------------
                      0         1         2         3         4         5   
                 -10.07138 -10.07136 -10.07134 -10.07132 -10.07127 -10.07125
                   2.00000   2.00000   2.00000   2.00000   2.00000   2.00000
                  --------  --------  --------  --------  --------  --------
  0C   1s         0.022922 -0.134884 -0.097810  0.031992  0.489826  0.421405
  0C   2s         0.001526 -0.013133 -0.008131  0.001853  0.032608  0.025804
  0C   3s        -0.000907  0.183787  0.053805 -0.003680 -0.096683 -0.030703
  0C   1pz       -0.000047 -0.000426 -0.000054 -0.000055  0.000806  0.000639
  0C   1px        0.000011  0.000449  0.000307  0.000047 -0.000397 -0.000631
  0C   1py        0.000186 -0.000188  0.000055  0.000159  0.000410  0.000361
  0C   2pz        0.006959  0.032086  0.004221  0.002237 -0.025007 -0.001500
  0C   2px       -0.000961 -0.043308 -0.018676  0.000190  0.021021  0.014046
  0C   2py       -0.014098  0.020311  0.003345 -0.007953 -0.013776 -0.002475
  0C   1dz2      -0.000352  0.000369  0.000516  0.000383  0.000195 -0.000777
  0C   1dxz       0.000525  0.000485 -0.000358  0.000523 -0.000471 -0.001065
  0C   1dyz       0.000245  0.000194  0.000646 -0.000341  0.000458  0.000122
  0C   1dx2y2    -0.000458 -0.000056 -0.000204 -0.000090  0.000135  0.001092
  0C   1dxy      -0.000957  0.000164 -0.000265 -0.001128 -0.000183 -0.000809
  1C   1s         0.023868  0.138722 -0.092788 -0.030962 -0.494813  0.540232
  1C   2s         0.001605  0.013441 -0.007643 -0.001774 -0.032907  0.033657
  1C   3s        -0.001805 -0.185649  0.047099  0.003310  0.096880 -0.058213
  1C   1pz        0.000047 -0.000393  0.000018 -0.000053  0.000775 -0.000756
  1C   1px       -0.000042 -0.000524  0.000262 -0.000006  0.000555 -0.000917
  1C   1py       -0.000185 -0.000040 -0.000142  0.000165  0.000273 -0.000207
  1C   2pz       -0.006918  0.028889 -0.001799  0.002249 -0.023384  0.005913
  1C   2px        0.002910  0.050114 -0.017297 -0.002148 -0.025889  0.021307
  1C   2py        0.013980  0.006515  0.002403 -0.007412 -0.006864 -0.000020
  1C   1dz2      -0.000287 -0.000436  0.000439 -0.000457 -0.000124 -0.000861
  1C   1dxz      -0.000475  0.000333  0.000608  0.000565 -0.000587  0.000942
  1C   1dyz       0.000310 -0.000345  0.000473  0.000259 -0.000280 -0.000020
  1C   1dx2y2     0.000125  0.000162  0.000023 -0.000502 -0.000250  0.001638
  1C   1dxy       0.001094  0.000061  0.000359 -0.000969 -0.000094  0.000017
  2C   1s         0.489898  0.463156  0.495356  0.495368 -0.030937  0.078601
  2C   2s         0.033406  0.032645  0.030697  0.030267 -0.002009  0.002727
  2C   3s        -0.103494 -0.203003 -0.060495 -0.033245  0.002950  0.026651
  2C   1pz        0.000076  0.000091 -0.000355 -0.000240 -0.000014  0.000087
  2C   1px       -0.000110 -0.000129 -0.000125 -0.000134 -0.000297 -0.000046
  2C   1py        0.001175  0.001101  0.000965  0.000843 -0.000107  0.000157
  2C   2pz       -0.015183 -0.013670  0.005411  0.001985 -0.000782 -0.004915
  2C   2px       -0.004628 -0.009006 -0.004108 -0.001952  0.013766  0.000907
  2C   2py       -0.035324 -0.066463 -0.023316 -0.013615 -0.000484  0.009898
  2C   1dz2       0.000194  0.000131 -0.000928 -0.000908  0.000115 -0.000271
  2C   1dxz       0.000320  0.000246  0.000076  0.000126  0.000089  0.000235
  2C   1dyz       0.001066  0.000740 -0.000138  0.000185  0.000036  0.000857
  2C   1dx2y2    -0.000359 -0.000703 -0.000717 -0.000168 -0.000331 -0.000727
  2C   1dxy       0.000438  0.000530  0.000678  0.000435 -0.001201  0.000380
  3C   1s        -0.498204 -0.482353  0.476653  0.486994 -0.031305  0.111965
  3C   2s        -0.033914 -0.033833  0.029385  0.029691 -0.002043  0.004270
  3C   3s         0.104114  0.205216 -0.052766 -0.031040  0.003166  0.043085
  3C   1pz        0.000962  0.000922 -0.000486 -0.000480  0.000124 -0.000191
  3C   1px       -0.000347 -0.000357  0.000342  0.000323  0.000269  0.000088
  3C   1py       -0.000622 -0.000583  0.000798  0.000646 -0.000117 -0.000010
  3C   2pz       -0.037582 -0.061787  0.012935  0.008859 -0.000619 -0.008096
  3C   2px        0.001255  0.003593 -0.001217 -0.001076 -0.013567  0.002263
  3C   2py        0.010126  0.031095 -0.017678 -0.009723  0.003224  0.013690
  3C   1dz2      -0.001187 -0.001098  0.000249  0.000231  0.000056  0.001312
  3C   1dxz      -0.000400 -0.000348  0.000254  0.000242 -0.000908  0.000222
  3C   1dyz      -0.000138  0.000195 -0.001271 -0.000888  0.000220 -0.000280
  3C   1dx2y2    -0.000097  0.000281 -0.000202  0.000344  0.000174 -0.000087
  3C   1dxy       0.000093  0.000026 -0.000169 -0.000247  0.000846  0.000019
  4C   1s        -0.489295  0.467423  0.490390 -0.496875  0.032209  0.078345
  4C   2s        -0.033350  0.032921  0.030382 -0.030345  0.002060  0.002708
  4C   3s         0.102731 -0.203616 -0.059931  0.032837 -0.002584  0.026701
  4C   1pz       -0.000931  0.000889  0.000498 -0.000479  0.000144  0.000165
  4C   1px       -0.000217  0.000234  0.000139 -0.000160 -0.000279  0.000077
  4C   1py        0.000693 -0.000642 -0.000887  0.000732 -0.000033 -0.000036
  4C   2pz        0.037091 -0.061357 -0.015159  0.009465 -0.001434  0.004790
  4C   2px        0.000934  0.001074  0.003043 -0.001161  0.013678 -0.001091
  4C   2py       -0.010168  0.030832  0.018472 -0.009978 -0.000953 -0.009957
  4C   1dz2      -0.001215  0.001131  0.000339 -0.000294  0.000074  0.001169
  4C   1dxz       0.000198 -0.000217 -0.000571  0.000492 -0.000947 -0.000131
  4C   1dyz      -0.000233 -0.000074 -0.001161  0.000794 -0.000011 -0.000385
  4C   1dx2y2    -0.000111 -0.000238 -0.000139 -0.000382  0.000247  0.000003
  4C   1dxy      -0.000043  0.000166  0.000184  0.000031  0.000785 -0.000027
  5H   1s        -0.000183  0.000199  0.000074 -0.000252 -0.002775 -0.003371
  5H   2s         0.000014 -0.003155 -0.001278  0.000052  0.002061  0.000906
  5H   1pz       -0.000383 -0.000134 -0.000005 -0.000263 -0.000186 -0.000605
  5H   1px        0.000102 -0.000197  0.000139  0.000126  0.001388  0.001439
  5H   1py        0.000620  0.000002  0.000038  0.000517 -0.000335 -0.000469
  6C   1s        -0.023206 -0.134502 -0.097839 -0.031866 -0.484411  0.427632
  6C   2s        -0.001559 -0.013110 -0.008131 -0.001851 -0.032275  0.026216
  6C   3s         0.001588  0.183764  0.053782  0.004072  0.096227 -0.031877
  6C   1pz       -0.000118 -0.000328  0.000061 -0.000098 -0.000736  0.000572
  6C   1px        0.000002 -0.000529 -0.000306  0.000043 -0.000551  0.000766
  6C   1py        0.000153 -0.000174 -0.000049  0.000139 -0.000326  0.000217
  6C   2pz        0.006877  0.027894  0.002017  0.004827  0.022347 -0.000694
  6C   2px       -0.000813  0.049670  0.019319  0.000523  0.025852 -0.014570
  6C   2py       -0.014156  0.008441 -0.000485 -0.006727  0.008855  0.001450
  6C   1dz2      -0.000278  0.000336  0.000539  0.000370 -0.000205 -0.000862
  6C   1dxz      -0.000500 -0.000280  0.000655 -0.000572 -0.000483  0.000847
  6C   1dyz       0.000330  0.000394  0.000400 -0.000346 -0.000246 -0.000219
  6C   1dx2y2     0.000107 -0.000240  0.000028  0.000506 -0.000321  0.001452
  6C   1dxy       0.001067 -0.000189  0.000204  0.000989 -0.000253  0.000072
  7H   1s        -0.003095 -0.002714 -0.003207 -0.003118  0.000467 -0.001266
  7H   2s         0.001729  0.002966  0.001494  0.001362 -0.000000 -0.000178
  7H   1pz       -0.000225 -0.000426 -0.001120 -0.000937  0.000267  0.000025
  7H   1px       -0.000861 -0.000818 -0.000595 -0.000543 -0.000299 -0.000287
  7H   1py       -0.001103 -0.000832 -0.001263 -0.001235  0.000062 -0.000605
  8C   1s        -0.023154  0.138993 -0.092972  0.032601  0.500803  0.534715
  8C   2s        -0.001532  0.013459 -0.007657  0.001908  0.033277  0.033288
  8C   3s         0.000801 -0.185669  0.047134 -0.004429 -0.097430 -0.057085
  8C   1pz        0.000119 -0.000363 -0.000054 -0.000095 -0.000790 -0.000772
  8C   1px       -0.000031  0.000444 -0.000266 -0.000006  0.000398  0.000750
  8C   1py       -0.000152 -0.000320  0.000126  0.000143 -0.000475 -0.000521
  8C   2pz       -0.006872  0.031350 -0.002216  0.004849  0.024137  0.006973
  8C   2px        0.002644 -0.043745  0.016880 -0.002193 -0.021061 -0.019672
  8C   2py        0.014046  0.022196 -0.004322 -0.006117  0.015851  0.006133
  8C   1dz2      -0.000341 -0.000313  0.000594 -0.000314  0.000235 -0.000701
  8C   1dxz       0.000564 -0.000417 -0.000455 -0.000475 -0.000404 -0.001087
  8C   1dyz       0.000241 -0.000293  0.000566  0.000422  0.000390  0.000277
  8C   1dx2y2    -0.000459  0.000073 -0.000114  0.000090  0.000125  0.001298
  8C   1dxy      -0.000957 -0.000298 -0.000144  0.001128 -0.000379 -0.000928
  9H   1s         0.003147  0.002837 -0.003096 -0.003066  0.000475 -0.001631
  9H   2s        -0.001752 -0.003023  0.001380  0.001327  0.000008 -0.000464
  9H   1pz       -0.001115 -0.001063  0.001697  0.001578 -0.000184  0.000558
  9H   1px       -0.000640 -0.000684  0.000405  0.000358  0.000278  0.000204
  9H   1py        0.000654  0.000326  0.000021 -0.000099 -0.000239 -0.000581
 10C   1s         0.494272 -0.482780  0.474989 -0.491964  0.032888  0.111997
 10C   2s         0.033653 -0.033876  0.029295 -0.030016  0.002112  0.004272
 10C   3s        -0.102983  0.205576 -0.052894  0.032249 -0.002765  0.043069
 10C   1pz       -0.000052  0.000057  0.000373 -0.000260 -0.000033 -0.000109
 10C   1px       -0.000451  0.000461 -0.000354  0.000351  0.000251 -0.000123
 10C   1py       -0.001098  0.001052 -0.000850  0.000762 -0.000193 -0.000132
 10C   2pz        0.015011 -0.013443 -0.005823  0.002228  0.000283  0.005966
 10C   2px        0.006774 -0.011588  0.001982 -0.001838 -0.013502 -0.002332
 10C   2py        0.034873 -0.067083  0.021068 -0.013304  0.003485 -0.014729
 10C   1dz2       0.000197 -0.000111 -0.000912  0.000899 -0.000129 -0.000055
 10C   1dxz       0.000058 -0.000049 -0.000159  0.000155  0.000097  0.000066
 10C   1dyz       0.001123 -0.000788 -0.000102 -0.000236  0.000037  0.001014
 10C   1dx2y2    -0.000528  0.000905 -0.000948  0.000384 -0.000397 -0.000888
 10C   1dxy      -0.000093  0.000006 -0.000173  0.000253 -0.001201  0.000175
 11H   1s        -0.000187 -0.000205  0.000067  0.000248  0.002805 -0.004002
 11H   2s         0.000029  0.003201 -0.001163 -0.000043 -0.002065  0.001663
 11H   1pz        0.000384 -0.000148 -0.000012 -0.000254 -0.000088  0.000553
 11H   1px       -0.000054  0.000177  0.000130  0.000009 -0.001446  0.001902
 11H   1py       -0.000634 -0.000047 -0.000075  0.000526  0.000080  0.000008
 12H   1s         0.000187 -0.000207  0.000067 -0.000252 -0.002851 -0.003971
 12H   2s        -0.000011  0.003201 -0.001164  0.000066  0.002081  0.001639
 12H   1pz        0.000261 -0.000097 -0.000044 -0.000251  0.000248  0.000669
 12H   1px       -0.000066 -0.000204 -0.000135  0.000008 -0.001431 -0.001756
 12H   1py       -0.000694 -0.000068  0.000050  0.000527  0.000242  0.000573
 13H   1s         0.000184  0.000196  0.000075  0.000251  0.002732 -0.003406
 13H   2s        -0.000024 -0.003154 -0.001277 -0.000057 -0.002048  0.000931
 13H   1pz       -0.000261 -0.000112  0.000048 -0.000259  0.000128 -0.000488
 13H   1px        0.000117  0.000169 -0.000134  0.000128  0.001402 -0.001573
 13H   1py        0.000679 -0.000126 -0.000011  0.000519 -0.000182 -0.000050
 14H   1s         0.003092 -0.002741 -0.003175  0.003129 -0.000485 -0.001261
 14H   2s        -0.001720  0.002980  0.001479 -0.001360 -0.000002 -0.000178
 14H   1pz        0.001137 -0.001055 -0.001748  0.001627 -0.000168 -0.000498
 14H   1px       -0.000715  0.000667  0.000285 -0.000272 -0.000341  0.000241
 14H   1py       -0.000452  0.000133 -0.000115 -0.000013 -0.000138  0.000380
 15H   1s        -0.003123  0.002840 -0.003086  0.003097 -0.000496 -0.001628
 15H   2s         0.001734 -0.003027  0.001377 -0.001349 -0.000011 -0.000463
 15H   1pz        0.000284 -0.000516  0.001122 -0.000964  0.000250 -0.000072
 15H   1px       -0.000489  0.000519 -0.000107  0.000093  0.000323 -0.000156
 15H   1py        0.001315 -0.001082  0.001323 -0.001320 -0.000022  0.000815
                      6         7         8         9        10        11   
                 -10.07124 -10.07121  -1.04251  -0.80975  -0.80841  -0.80786
                   2.00000   2.00000   2.00000   2.00000   2.00000   2.00000
                  --------  --------  --------  --------  --------  --------
  0C   1s         0.530156 -0.496922  0.093095  0.000804  0.095992 -0.135218
  0C   2s         0.034796 -0.030249 -0.172821  0.001102 -0.195186  0.272103
  0C   3s        -0.116208  0.032850 -0.061585 -0.041922 -0.071057  0.118982
  0C   1pz        0.000790 -0.000564 -0.048693  0.048873  0.038060  0.076716
  0C   1px       -0.000616  0.000404  0.063893 -0.012526  0.085745  0.010211
  0C   1py        0.000421 -0.000379 -0.031588 -0.098484  0.007265  0.035158
  0C   2pz       -0.024002  0.005187 -0.014011 -0.005939 -0.004909  0.033323
  0C   2px        0.025848 -0.013591  0.038211  0.006876  0.035579 -0.041452
  0C   2py       -0.014805  0.002588 -0.015377 -0.015362 -0.010181  0.019238
  0C   1dz2       0.000074  0.000647  0.000570  0.005652  0.008139  0.004925
  0C   1dxz      -0.000287  0.000784  0.006717 -0.005309 -0.000302 -0.002219
  0C   1dyz       0.000810  0.000413 -0.002904 -0.004493  0.004462  0.003702
  0C   1dx2y2     0.000959 -0.000329 -0.003470  0.005756 -0.007222 -0.003075
  0C   1dxy      -0.000419  0.000368  0.004347  0.008762  0.001447 -0.000481
  1C   1s        -0.411106 -0.489630  0.093095 -0.000984 -0.095775 -0.135372
  1C   2s        -0.027438 -0.029765 -0.172823 -0.000744  0.194756  0.272420
  1C   3s         0.105296  0.031620 -0.061688  0.042096  0.070854  0.119001
  1C   1pz        0.000575  0.000518  0.043778  0.048786  0.044011 -0.076870
  1C   1px        0.000561  0.000527  0.073521 -0.012954 -0.077143 -0.005832
  1C   1py        0.000172  0.000236  0.011372 -0.098470  0.031288 -0.035634
  1C   2pz       -0.021183 -0.003858  0.011161 -0.005328 -0.002257 -0.030139
  1C   2px       -0.026258 -0.013753  0.041928 -0.011477 -0.037167 -0.047484
  1C   2py       -0.006717  0.001586  0.003593 -0.012680  0.000550 -0.006132
  1C   1dz2      -0.000245  0.000730  0.001410 -0.005055 -0.007938  0.004536
  1C   1dxz      -0.000219 -0.000505 -0.006778 -0.004318 -0.003057  0.003941
  1C   1dyz      -0.000723  0.000623 -0.000688  0.005183 -0.003912  0.002678
  1C   1dx2y2    -0.000700 -0.000512 -0.005792 -0.000198  0.006622 -0.002010
  1C   1dxy       0.000144 -0.000073 -0.001693  0.010914 -0.003040  0.002236
  2C   1s         0.147825  0.023913  0.091338 -0.136696  0.096555  0.000734
  2C   2s         0.006670  0.001921 -0.176161  0.280593 -0.196577  0.000567
  2C   3s         0.073707 -0.008619  0.022485  0.098470 -0.082143 -0.024095
  2C   1pz        0.000134 -0.000078 -0.012576  0.062790  0.083016 -0.002504
  2C   1px       -0.000097  0.000091 -0.010682  0.003020  0.000735  0.102410
  2C   1py        0.000030  0.000159 -0.084791  0.051080 -0.050969 -0.009588
  2C   2pz       -0.004798 -0.001004 -0.012172  0.014562 -0.010455 -0.006009
  2C   2px        0.002399 -0.007756 -0.007026  0.017507 -0.008490  0.003284
  2C   2py        0.022511 -0.003001 -0.005546  0.044643 -0.038466 -0.014262
  2C   1dz2       0.000818  0.000025  0.003980  0.000654  0.003433 -0.000014
  2C   1dxz       0.000227 -0.001039 -0.000330  0.001330  0.001287  0.001616
  2C   1dyz       0.000584  0.000085 -0.002649  0.008687  0.009364 -0.000694
  2C   1dx2y2    -0.000415  0.000178  0.007304 -0.001215  0.003082  0.003342
  2C   1dxy       0.000224  0.000777 -0.002321  0.001454 -0.000874  0.012445
  3C   1s        -0.124674 -0.023360  0.091338 -0.136573 -0.096734 -0.000550
  3C   2s        -0.005814 -0.001884 -0.176172  0.280346  0.196954 -0.000950
  3C   3s        -0.065343  0.008564  0.022684  0.098331  0.082261  0.023991
  3C   1pz        0.000053  0.000083  0.075038 -0.078913  0.011355  0.001436
  3C   1px       -0.000068  0.000042 -0.005797  0.001342  0.019614  0.101398
  3C   1py        0.000108 -0.000171 -0.042393 -0.018423  0.094710 -0.017369
  3C   2pz        0.013319 -0.003737  0.012469 -0.045550 -0.037385 -0.014460
  3C   2px       -0.002327 -0.006741  0.006929 -0.009311 -0.001405  0.005522
  3C   2py       -0.014691  0.002518  0.004815  0.018543  0.016289  0.003034
  3C   1dz2      -0.000519  0.000024 -0.006071  0.008271 -0.006457  0.000427
  3C   1dxz      -0.000211  0.000034  0.000534  0.001212 -0.000858 -0.011084
  3C   1dyz      -0.000669 -0.000003  0.006404  0.001774 -0.006650  0.001532
  3C   1dx2y2     0.000424  0.000384  0.001850  0.002630 -0.004813  0.001860
  3C   1dxy      -0.000165  0.001236 -0.000233 -0.001218  0.001170  0.006349
  4C   1s         0.147881 -0.023126  0.091337  0.136571  0.096734 -0.000577
  4C   2s         0.006677 -0.001889 -0.176164 -0.280345 -0.196949 -0.000885
  4C   3s         0.073634  0.009197  0.022531 -0.098314 -0.082266  0.023885
  4C   1pz        0.000090 -0.000090 -0.074881 -0.078444  0.011737 -0.008576
  4C   1px        0.000121  0.000090  0.001411 -0.011963  0.009137  0.101779
  4C   1py        0.000075  0.000154  0.043037 -0.016463  0.096245 -0.012339
  4C   2pz        0.014776  0.004381 -0.012933 -0.046267 -0.037577  0.014035
  4C   2px       -0.001299 -0.007208  0.004370  0.011049  0.003412  0.005414
  4C   2py       -0.017728 -0.000618 -0.006455  0.015544  0.015584 -0.004617
  4C   1dz2       0.000828  0.000031 -0.006068 -0.008337  0.006417 -0.000922
  4C   1dxz       0.000055  0.000003  0.000469 -0.000139  0.001510  0.011071
  4C   1dyz       0.000613  0.000102  0.006420 -0.001898  0.006555 -0.001240
  4C   1dx2y2    -0.000444 -0.000372  0.001801 -0.002870  0.004821 -0.001179
  4C   1dxy       0.000152 -0.001255 -0.000391  0.000286 -0.001221 -0.006542
  5H   1s        -0.002944  0.003457 -0.018121 -0.000469 -0.037797  0.070203
  5H   2s         0.003225 -0.000866 -0.011542  0.000738 -0.009799  0.016094
  5H   1pz       -0.000397  0.000503 -0.001672  0.000985 -0.000789  0.004860
  5H   1px        0.001530 -0.001349  0.002307 -0.000143  0.004527 -0.006990
  5H   1py       -0.000382  0.000477 -0.000904 -0.001562 -0.000757  0.003181
  6C   1s         0.527051  0.500296  0.093094 -0.000928  0.095772  0.135373
  6C   2s         0.034609  0.030474 -0.172824 -0.000852 -0.194749 -0.272422
  6C   3s        -0.116048 -0.033712 -0.061546  0.041982 -0.070814 -0.119018
  6C   1pz        0.000701  0.000574 -0.043308  0.047962  0.043817 -0.075872
  6C   1px        0.000771  0.000529 -0.073644 -0.012516 -0.077092 -0.006095
  6C   1py        0.000292  0.000164 -0.012332 -0.098930  0.031667 -0.037669
  6C   2pz       -0.021720 -0.003017 -0.013899  0.014309 -0.004706 -0.028178
  6C   2px       -0.030613 -0.014666 -0.041158  0.009061 -0.036514 -0.048010
  6C   2py       -0.007022 -0.001304  0.002043 -0.005703  0.005558 -0.010123
  6C   1dz2       0.000058 -0.000768  0.001568  0.005080  0.008009 -0.004333
  6C   1dxz       0.000413  0.000457 -0.006705  0.004577  0.003071 -0.003905
  6C   1dyz       0.000678 -0.000572 -0.000842 -0.005234  0.003846 -0.002867
  6C   1dx2y2     0.001092  0.000530 -0.005752  0.000162 -0.006594  0.002091
  6C   1dxy      -0.000098  0.000212 -0.001900 -0.010771  0.002984 -0.002386
  7H   1s        -0.001680 -0.000436 -0.017543  0.059293 -0.052190 -0.010060
  7H   2s        -0.001245 -0.000406 -0.011019  0.015509 -0.012404 -0.003640
  7H   1pz        0.000274 -0.000234 -0.000421  0.003145 -0.000272 -0.000489
  7H   1px       -0.000399  0.000112 -0.000580  0.001896 -0.002073  0.001391
  7H   1py       -0.000622  0.000039 -0.003203  0.006245 -0.006592 -0.001840
  8C   1s        -0.414874  0.486223  0.093095  0.001109 -0.095993  0.135217
  8C   2s        -0.027670  0.029538 -0.172823  0.000489  0.195194 -0.272100
  8C   3s         0.105588 -0.030750 -0.061722 -0.042150  0.071011 -0.118990
  8C   1pz        0.000586 -0.000586  0.048221  0.048088  0.037879  0.075714
  8C   1px       -0.000441  0.000406 -0.063771 -0.013136  0.085796  0.010473
  8C   1py        0.000383 -0.000290  0.032548 -0.098792  0.007646  0.037193
  8C   2pz       -0.022713  0.003321  0.016802  0.015012 -0.007356  0.031362
  8C   2px        0.021714 -0.012784 -0.038969 -0.009358  0.036212 -0.040936
  8C   2py       -0.014275  0.004983  0.009765 -0.002973 -0.005169  0.023238
  8C   1dz2      -0.000269 -0.000701  0.000740 -0.005708 -0.008213 -0.004716
  8C   1dxz       0.000010 -0.000707  0.006614  0.005559  0.000329  0.002146
  8C   1dyz      -0.000744 -0.000386 -0.003045  0.004460 -0.004398 -0.003884
  8C   1dx2y2    -0.000670  0.000266 -0.003332 -0.005630  0.007171  0.003218
  8C   1dxy       0.000254 -0.000480  0.004490 -0.008668 -0.001474  0.000550
  9H   1s         0.001330  0.000427 -0.017542  0.059240  0.052267  0.009983
  9H   2s         0.001168  0.000405 -0.011015  0.015496  0.012417  0.003622
  9H   1pz       -0.000231 -0.000099  0.002821 -0.007002 -0.005533 -0.001589
  9H   1px       -0.000190  0.000071 -0.000053 -0.000874 -0.000689  0.001685
  9H   1py        0.000541 -0.000223 -0.001681  0.001614  0.004106  0.000415
 10C   1s        -0.125209  0.022627  0.091338  0.136698 -0.096557  0.000394
 10C   2s        -0.005851  0.001856 -0.176168 -0.280599  0.196583  0.001264
 10C   3s        -0.065237 -0.009150  0.022645 -0.098491  0.082163 -0.023758
 10C   1pz        0.000103  0.000075  0.012418  0.062312  0.083393 -0.004710
 10C   1px        0.000085  0.000041  0.015067  0.016337 -0.009724  0.100715
 10C   1py       -0.000031 -0.000176  0.084145  0.049114 -0.049423 -0.020449
 10C   2pz       -0.003553  0.001483  0.012558  0.015292 -0.010626  0.005574
 10C   2px        0.003414 -0.006154 -0.004280 -0.002860 -0.003697  0.007643
 10C   2py        0.019306  0.005201  0.007146  0.047652 -0.039177  0.012507
 10C   1dz2      -0.000864 -0.000106  0.003990 -0.000648 -0.003410  0.000187
 10C   1dxz      -0.000077  0.001022 -0.000500 -0.001427 -0.001650 -0.001573
 10C   1dyz      -0.000381 -0.000165 -0.002624 -0.008724 -0.009292  0.000693
 10C   1dx2y2     0.000260 -0.000200  0.007311  0.001628 -0.003252 -0.004199
 10C   1dxy      -0.000041 -0.000745 -0.002272 -0.000069  0.000354 -0.012188
 11H   1s         0.002033  0.003414 -0.018121  0.000564  0.037684  0.070261
 11H   2s        -0.002911 -0.000844 -0.011539 -0.000714  0.009769  0.016106
 11H   1pz       -0.000156 -0.000403  0.001497  0.000983 -0.000456 -0.004329
 11H   1px       -0.001174 -0.001440  0.002580 -0.000254 -0.004584 -0.007938
 11H   1py        0.000084 -0.000065  0.000185 -0.001549  0.000587 -0.000983
 12H   1s         0.002059 -0.003396 -0.018120 -0.000611  0.037800 -0.070197
 12H   2s        -0.002918  0.000821 -0.011538  0.000701  0.009796 -0.016093
 12H   1pz       -0.000236  0.000542  0.001503  0.000634 -0.000619  0.004773
 12H   1px        0.001143 -0.001330 -0.002262 -0.000297  0.004482 -0.006966
 12H   1py       -0.000272  0.000384  0.001247 -0.001715 -0.001104  0.003360
 13H   1s        -0.002922 -0.003475 -0.018121  0.000518 -0.037680 -0.070266
 13H   2s         0.003221  0.000889 -0.011540 -0.000725 -0.009772 -0.016109
 13H   1pz       -0.000273 -0.000447 -0.001329  0.000624 -0.000285 -0.004240
 13H   1px       -0.001592 -0.001460 -0.002625 -0.000176 -0.004628 -0.007963
 13H   1py        0.000060  0.000025 -0.000529 -0.001735  0.000240 -0.001163
 14H   1s        -0.001682  0.000426 -0.017544 -0.059226 -0.052284  0.009978
 14H   2s        -0.001248  0.000396 -0.011020 -0.015493 -0.012430  0.003622
 14H   1pz       -0.000379  0.000093 -0.002826 -0.007060 -0.005613  0.001472
 14H   1px        0.000387  0.000149  0.000236  0.000812  0.001450  0.001602
 14H   1py        0.000571  0.000199  0.001654  0.001365  0.003792 -0.000894
 15H   1s         0.001336 -0.000417 -0.017542 -0.059309  0.052205 -0.009901
 15H   2s         0.001170 -0.000395 -0.011015 -0.015513  0.012404 -0.003602
 15H   1pz        0.000240  0.000223  0.000428  0.003206 -0.000349  0.000367
 15H   1px        0.000190  0.000106  0.000397  0.000207  0.000063  0.001892
 15H   1py       -0.000536 -0.000075  0.003231  0.006496 -0.006909  0.001338
                     12        13        14        15        16        17   
                  -0.63166  -0.62888  -0.61291  -0.60451  -0.55106  -0.54390
                   2.00000   2.00000   2.00000   2.00000   2.00000   2.00000
                  --------  --------  --------  --------  --------  --------
  0C   1s        -0.005397 -0.090878 -0.126074  0.008420 -0.023028  0.021394
  0C   2s         0.013976  0.194714  0.270940 -0.023718  0.056657 -0.047048
  0C   3s        -0.007890  0.140902  0.209050  0.042782  0.011567 -0.061249
  0C   1pz        0.052256  0.033734 -0.073383  0.099209  0.080528  0.134263
  0C   1px       -0.006201  0.151931  0.032048 -0.083429 -0.033696  0.126432
  0C   1py       -0.089965 -0.008348 -0.049729  0.047611 -0.185472  0.053216
  0C   2pz        0.008556  0.035343  0.017140  0.054346  0.033505  0.034002
  0C   2px        0.002961  0.011521 -0.067093 -0.077795 -0.016605  0.069448
  0C   2py       -0.018098  0.005296  0.016007  0.024058 -0.061867  0.009051
  0C   1dz2      -0.002690  0.004879 -0.004065  0.001276  0.006593  0.007788
  0C   1dxz      -0.003690  0.004453 -0.005233 -0.010414 -0.005050 -0.005365
  0C   1dyz       0.004098  0.005162 -0.005191  0.007266 -0.007053  0.001471
  0C   1dx2y2     0.000888  0.000683  0.000815  0.004500  0.009673 -0.012484
  0C   1dxy       0.008669  0.002080 -0.001764 -0.005978  0.003742  0.000072
  1C   1s        -0.005379 -0.090891  0.126060  0.008473  0.023030  0.021416
  1C   2s         0.013933  0.194740 -0.270906 -0.023835 -0.056665 -0.047098
  1C   3s        -0.007743  0.140917 -0.209055  0.042873 -0.011574 -0.061245
  1C   1pz       -0.052623 -0.044351 -0.070414 -0.092675  0.079843 -0.142266
  1C   1px        0.016294  0.145164 -0.049992 -0.100347 -0.015503  0.096018
  1C   1py        0.088466 -0.035350 -0.037664 -0.020584 -0.188180 -0.085894
  1C   2pz       -0.008958 -0.036014  0.012269 -0.048552  0.032889 -0.038701
  1C   2px        0.007396  0.007018  0.069922 -0.085062  0.000413  0.061349
  1C   2py        0.016551 -0.008015 -0.004170 -0.000115 -0.064391 -0.028277
  1C   1dz2      -0.003195  0.005289  0.004570 -0.000093 -0.006092  0.007005
  1C   1dxz       0.004548 -0.002135 -0.002886  0.011637 -0.003058  0.007245
  1C   1dyz       0.003489  0.006272  0.006472  0.003693  0.007771 -0.000640
  1C   1dx2y2    -0.003683 -0.000686 -0.001812  0.007920 -0.006130 -0.010006
  1C   1dxy      -0.007546 -0.001650 -0.000535  0.002649  0.009049  0.006729
  2C   1s        -0.124223  0.072351 -0.001745  0.062323  0.018683 -0.023436
  2C   2s         0.263517 -0.156404  0.005100 -0.130910 -0.039537  0.051631
  2C   3s         0.242632 -0.104582  0.000024 -0.160072 -0.027015  0.063980
  2C   1pz       -0.081641 -0.040487  0.002886  0.029307 -0.004175  0.244400
  2C   1px       -0.024088  0.011489  0.103902  0.045144  0.219689 -0.001096
  2C   1py       -0.055167  0.007321  0.004288  0.165326  0.044127 -0.043301
  2C   2pz        0.010060 -0.021190  0.001303  0.016320 -0.004587  0.075820
  2C   2px        0.013147 -0.017265  0.027458  0.002910  0.063028  0.006904
  2C   2py        0.073171 -0.044589  0.001604  0.014789  0.011156  0.015900
  2C   1dz2      -0.005219 -0.004563  0.000431 -0.007575  0.000923  0.001198
  2C   1dxz       0.000171 -0.001115 -0.008177 -0.000847  0.005584  0.001281
  2C   1dyz      -0.000082 -0.002296  0.001287  0.002315 -0.004921  0.015744
  2C   1dx2y2     0.000533  0.007716  0.001227 -0.009282  0.003313  0.004349
  2C   1dxy       0.002070 -0.002788  0.005983  0.001024  0.011999 -0.000265
  3C   1s         0.124222  0.072352 -0.001764  0.062317 -0.018681 -0.023450
  3C   2s        -0.263517 -0.156401  0.005146 -0.130901  0.039527  0.051660
  3C   3s        -0.242629 -0.104668 -0.000028 -0.160156  0.027033  0.064006
  3C   1pz       -0.095849  0.018080 -0.015625 -0.151718  0.054064 -0.116757
  3C   1px       -0.020359 -0.005587 -0.100540 -0.012863  0.204314 -0.032639
  3C   1py       -0.026244  0.038300  0.021683  0.083931 -0.074587 -0.216569
  3C   2pz        0.064659  0.049663 -0.004809 -0.021890  0.012234 -0.059877
  3C   2px       -0.001260  0.009769 -0.026518 -0.001448  0.058577 -0.011134
  3C   2py       -0.038009 -0.013316  0.005567 -0.003439 -0.023147 -0.048384
  3C   1dz2       0.000410 -0.006742  0.000402  0.006265  0.003516  0.011056
  3C   1dxz      -0.001213 -0.001123 -0.000266 -0.003096 -0.013472  0.001092
  3C   1dyz       0.004602 -0.000309  0.000288 -0.010011  0.001899  0.006779
  3C   1dx2y2    -0.002374  0.006636 -0.002962 -0.001217  0.003057  0.009348
  3C   1dxy       0.001841 -0.001944 -0.009845  0.000271  0.002107 -0.003620
  4C   1s         0.124225  0.072352  0.001730  0.062320  0.018675 -0.023437
  4C   2s        -0.263532 -0.156398 -0.005069 -0.130917 -0.039513  0.051625
  4C   3s        -0.242433 -0.104694  0.000034 -0.159947 -0.027039  0.064041
  4C   1pz        0.096761 -0.017248 -0.022920  0.153089  0.069010  0.116499
  4C   1px       -0.005191 -0.017624  0.101181 -0.025770 -0.212819  0.039359
  4C   1py        0.030002 -0.034885 -0.007980 -0.078241 -0.013170  0.215602
  4C   2pz       -0.064735 -0.050363 -0.006743  0.021968  0.016542  0.060015
  4C   2px        0.005211  0.009685  0.026595  0.001151 -0.061765  0.007495
  4C   2py        0.037396  0.010465 -0.002241  0.003449 -0.005433  0.048927
  4C   1dz2       0.000167 -0.006792 -0.000366  0.006017 -0.001836  0.011027
  4C   1dxz       0.002722 -0.000319 -0.000277  0.000912 -0.013607  0.001540
  4C   1dyz       0.004089 -0.000422  0.000531 -0.010581  0.001879  0.006642
  4C   1dx2y2    -0.002772  0.006627 -0.002978 -0.001239 -0.002312  0.009951
  4C   1dxy       0.000031 -0.002078 -0.009831 -0.000301  0.003720 -0.001681
  5H   1s         0.004948  0.141357  0.155053 -0.070863  0.022459 -0.001740
  5H   2s         0.001100  0.018042  0.039800  0.014105  0.009182 -0.011220
  5H   1pz        0.001105  0.006304  0.003759 -0.002581  0.001540  0.002966
  5H   1px       -0.000449 -0.009544 -0.011586  0.006304 -0.001844  0.001558
  5H   1py       -0.001160  0.004507  0.003006 -0.001822 -0.002473  0.001344
  6C   1s         0.005400 -0.090895  0.126057  0.008474 -0.023027  0.021401
  6C   2s        -0.013977  0.194748 -0.270902 -0.023829  0.056661 -0.047063
  6C   3s         0.007701  0.140933 -0.209069  0.042662  0.011518 -0.061271
  6C   1pz        0.038294  0.040266  0.077850  0.083362 -0.099230  0.145078
  6C   1px       -0.007676 -0.144094  0.048024  0.102798  0.031719 -0.096826
  6C   1py       -0.096621  0.043674  0.022475  0.039543  0.176549  0.080138
  6C   2pz        0.008150  0.027740 -0.011394  0.038592 -0.029957  0.039728
  6C   2px        0.002868 -0.004829 -0.070158  0.087610  0.016964 -0.061651
  6C   2py       -0.018281  0.024850  0.002374  0.020291  0.063576  0.026139
  6C   1dz2      -0.004055  0.005500  0.006273  0.000582 -0.010140  0.006859
  6C   1dxz       0.004270 -0.002430 -0.002444  0.010928 -0.002200  0.007591
  6C   1dyz       0.001980  0.006117  0.004862  0.003170  0.007711 -0.000550
  6C   1dx2y2    -0.004572 -0.000425 -0.001199  0.008630  0.000833 -0.010261
  6C   1dxy      -0.007353 -0.001140 -0.002065  0.003816  0.007646  0.006097
  7H   1s         0.152816 -0.063960 -0.020647 -0.148724 -0.087787  0.003201
  7H   2s         0.033574 -0.022208 -0.001634 -0.006692 -0.009919  0.011230
  7H   1pz        0.003195 -0.002528 -0.000333 -0.004735 -0.002411  0.004550
  7H   1px        0.004564 -0.001727  0.001305 -0.004031  0.001526  0.000302
  7H   1py        0.011379 -0.004135 -0.002142 -0.010962 -0.006963 -0.001554
  8C   1s         0.005382 -0.090874 -0.126076  0.008419  0.023031  0.021408
  8C   2s        -0.013944  0.194702  0.270938 -0.023718 -0.056667 -0.047080
  8C   3s         0.007914  0.140897  0.209097  0.042979 -0.011547 -0.061221
  8C   1pz       -0.038648 -0.029643  0.080856 -0.089901 -0.098628 -0.137107
  8C   1px        0.017781 -0.153000 -0.034013  0.080977  0.013515 -0.125629
  8C   1py        0.095147  0.000026  0.034562 -0.066579  0.179204 -0.047482
  8C   2pz       -0.008560 -0.027081 -0.016270 -0.044475 -0.029367 -0.035071
  8C   2px        0.007491 -0.013706  0.066873  0.075227 -0.000022 -0.069147
  8C   2py        0.016739 -0.022133 -0.017792 -0.044279  0.066069 -0.006933
  8C   1dz2      -0.003555  0.005058 -0.005842  0.001869  0.010475  0.007680
  8C   1dxz      -0.003899  0.004712 -0.004476 -0.009819 -0.003245 -0.005684
  8C   1dyz       0.002578  0.004967 -0.003669  0.006648 -0.007431  0.001609
  8C   1dx2y2     0.000011  0.000634 -0.000469  0.004481  0.003181 -0.012366
  8C   1dxy       0.008893  0.001494 -0.002607 -0.007395  0.006380  0.000756
  9H   1s        -0.152820 -0.063965 -0.020629 -0.148717  0.087780  0.003202
  9H   2s        -0.033569 -0.022212 -0.001635 -0.006682  0.009923  0.011238
  9H   1pz        0.011316  0.004962  0.001745  0.011885 -0.006769 -0.001622
  9H   1px        0.002422  0.001085 -0.001678  0.002145  0.002676 -0.001076
  9H   1py       -0.005157 -0.000821 -0.000734 -0.003598  0.001909 -0.004407
 10C   1s        -0.124222  0.072350  0.001750  0.062320 -0.018675 -0.023450
 10C   2s         0.263521 -0.156403 -0.005117 -0.130897  0.039516  0.051667
 10C   3s         0.242443 -0.104564  0.000046 -0.160267  0.027032  0.063944
 10C   1pz        0.082555  0.039657  0.010112 -0.030680  0.010675 -0.244140
 10C   1px       -0.001463  0.011721 -0.097809 -0.006507 -0.197454 -0.005623
 10C   1py        0.058926 -0.010738  0.034025 -0.170999  0.105501  0.044284
 10C   2pz       -0.010180  0.021887  0.003208 -0.016312 -0.000309 -0.075937
 10C   2px       -0.009185 -0.002186 -0.025668 -0.002607 -0.057315 -0.003259
 10C   2py       -0.073682  0.047441  0.009415 -0.014751  0.028844 -0.016432
 10C   1dz2      -0.005159 -0.004587  0.000589 -0.007700 -0.001677  0.001082
 10C   1dxz      -0.000789 -0.000726 -0.008274  0.001170  0.006443  0.003148
 10C   1dyz       0.000211 -0.002379  0.000697  0.001891  0.002256  0.015499
 10C   1dx2y2    -0.000730  0.007936  0.001714 -0.008193  0.004347  0.004156
 10C   1dxy      -0.002009 -0.002101  0.005814  0.004390  0.011955 -0.001131
 11H   1s         0.004927  0.141366 -0.155012 -0.070934 -0.022453 -0.001810
 11H   2s         0.001096  0.018038 -0.039803  0.014096 -0.009181 -0.011239
 11H   1pz       -0.001082 -0.005575  0.002908  0.002116  0.001432 -0.003052
 11H   1px       -0.000170 -0.010855  0.012190  0.006731  0.001158  0.000899
 11H   1py        0.001251 -0.001506 -0.000492 -0.000095 -0.002915 -0.001704
 12H   1s        -0.004931  0.141342  0.155066 -0.070868 -0.022461 -0.001809
 12H   2s        -0.001093  0.018042  0.039800  0.014107 -0.009174 -0.011227
 12H   1pz       -0.000270 -0.006441 -0.003495  0.002378 -0.001168 -0.003033
 12H   1px       -0.000085  0.009579  0.011516 -0.006250 -0.001130 -0.001544
 12H   1py        0.001639 -0.004229 -0.003549  0.002239  0.003041 -0.001201
 13H   1s        -0.004953  0.141380 -0.155001 -0.070929  0.022453 -0.001740
 13H   2s        -0.001102  0.018040 -0.039802  0.014092  0.009180 -0.011229
 13H   1pz        0.000292  0.005711 -0.002640 -0.001910 -0.001275  0.003124
 13H   1px       -0.000535  0.010820 -0.012260 -0.006785  0.001872 -0.000912
 13H   1py       -0.001548  0.001228 -0.000049 -0.000321  0.002599  0.001563
 14H   1s        -0.152819 -0.063967  0.020701 -0.148706 -0.087778  0.003211
 14H   2s        -0.033571 -0.022210  0.001640 -0.006684 -0.009921  0.011236
 14H   1pz       -0.011511 -0.005034  0.001637 -0.012042 -0.006584  0.001649
 14H   1px        0.003005  0.000925  0.001513  0.002253 -0.002479  0.000355
 14H   1py        0.004359  0.000525 -0.001206  0.002951  0.002669  0.004513
 15H   1s         0.152817 -0.063964  0.020682 -0.148713  0.087783  0.003211
 15H   2s         0.033570 -0.022207  0.001638 -0.006696  0.009927  0.011238
 15H   1pz       -0.003389  0.002600 -0.000220  0.004892 -0.002227 -0.004576
 15H   1px        0.000863 -0.000284 -0.001886 -0.000369 -0.003629  0.000418
 15H   1py       -0.012178  0.004431 -0.001676  0.011607 -0.006205  0.001447
                     18        19        20        21        22        23   
                  -0.51677  -0.51212  -0.50178  -0.49957  -0.38822  -0.38537
                   2.00000   2.00000   2.00000   2.00000   2.00000   2.00000
                  --------  --------  --------  --------  --------  --------
  0C   1s         0.070524  0.011072  0.007604  0.018799  0.004784  0.007216
  0C   2s        -0.161293 -0.025110 -0.005185 -0.037196 -0.016783 -0.018374
  0C   3s        -0.097963 -0.009745 -0.009053 -0.505814  0.020387 -0.005612
  0C   1pz        0.090749  0.035913  0.147134  0.014936 -0.083447  0.039040
  0C   1px       -0.166989 -0.025122 -0.194263  0.124661  0.060365 -0.025996
  0C   1py        0.009091 -0.046495  0.086418 -0.099695  0.155377 -0.248864
  0C   2pz        0.023835  0.003014  0.048245 -0.115079 -0.029249  0.027793
  0C   2px       -0.023429  0.004979 -0.080863  0.175284  0.008595 -0.015404
  0C   2py       -0.002546 -0.008031  0.034118 -0.106877  0.072187 -0.121044
  0C   1dz2       0.002449  0.011079  0.005121  0.009158  0.002246 -0.007185
  0C   1dxz       0.005923 -0.002264 -0.007065 -0.002118  0.001974 -0.004223
  0C   1dyz      -0.002995 -0.010021  0.001054 -0.004548 -0.000422  0.001601
  0C   1dx2y2     0.002082  0.006040 -0.009633 -0.008617  0.000840 -0.000919
  0C   1dxy       0.004285  0.003130 -0.000427  0.003982 -0.007887  0.007983
  1C   1s        -0.070518 -0.011074  0.007594 -0.018802 -0.004779  0.007221
  1C   2s         0.161277  0.025112 -0.005155  0.037202  0.016767 -0.018395
  1C   3s         0.097954  0.009741 -0.009011  0.505797 -0.020355 -0.005396
  1C   1pz        0.078696  0.034554 -0.132286  0.024708 -0.080688 -0.039651
  1C   1px        0.168504  0.013132 -0.220766 -0.146609 -0.018760  0.044017
  1C   1py       -0.040295 -0.052123 -0.025401 -0.059752  0.167099  0.246140
  1C   2pz        0.022129  0.003440 -0.042129 -0.101401 -0.029355 -0.027914
  1C   2px        0.023329 -0.006858 -0.090473 -0.206171  0.010512  0.018101
  1C   2py       -0.009417 -0.006301 -0.008944 -0.050766  0.071940  0.120604
  1C   1dz2      -0.003199 -0.010922  0.004166 -0.008877 -0.002490 -0.007683
  1C   1dxz       0.006184 -0.000325  0.008217 -0.002486  0.002012  0.003889
  1C   1dyz       0.000873  0.010038 -0.001420  0.005118  0.000361  0.000932
  1C   1dx2y2     0.001079 -0.003192 -0.007271  0.009328 -0.004910 -0.004869
  1C   1dxy       0.004731  0.006650  0.005506 -0.001065 -0.006132 -0.006148
  2C   1s        -0.052924  0.018275 -0.005043 -0.035120 -0.007810 -0.018319
  2C   2s         0.125875 -0.030256  0.011084  0.057695  0.017607  0.048025
  2C   3s         0.086201 -0.024854  0.018627  0.536023  0.008857  0.028463
  2C   1pz       -0.036192  0.124814 -0.006478  0.010827  0.292011  0.034717
  2C   1px        0.036523  0.053143  0.105064  0.038207 -0.036791  0.244575
  2C   1py       -0.030615  0.227360 -0.008173 -0.216964 -0.085199 -0.022442
  2C   2pz       -0.004559  0.037063  0.000828  0.037532  0.132298  0.011260
  2C   2px        0.022324  0.013045  0.025185  0.043439 -0.017589  0.098907
  2C   2py        0.025743  0.084784  0.006264  0.115047 -0.039064 -0.020736
  2C   1dz2      -0.001045 -0.002501 -0.000634 -0.002050  0.013062  0.006236
  2C   1dxz       0.001730  0.000063  0.008596  0.004314  0.001572 -0.012087
  2C   1dyz      -0.002202  0.007067 -0.001582  0.012591  0.001257  0.000334
  2C   1dx2y2    -0.006560 -0.000745  0.003634  0.005114 -0.005393  0.002746
[...]
     29      -0.039744   0.202193  -0.051708  -0.158521  -0.068128  -0.179951
     30       0.057476   0.011353  -0.063989   0.027136   0.110100  -0.042082
     31      -0.006970  -0.012110   0.005102  -0.014540   0.026539   0.098248
     32      -0.011204   0.062897   0.028594   0.063196  -0.036836  -0.047890
     33      -0.001507   0.009839  -0.101915  -0.142970   0.064699   0.033441
     34       0.304640   0.276540  -0.228610   0.256393   0.048319   0.365067
     35      -0.077588  -0.090168   0.239696   0.184176  -0.293824  -0.060158
     36      -0.091558  -0.007608   0.122380   0.192863   0.064890   0.000655
     37      -0.354903   0.166049   0.320879  -0.032010   0.241300   0.271481
     38       0.111611  -0.121454  -0.046408   0.286300   0.098977  -0.259380
     39       0.001287  -0.009920  -0.102035  -0.142905  -0.064827  -0.033458
     40      -0.304573  -0.276543  -0.228514   0.256472  -0.048939  -0.365020
     41       0.077747   0.090084   0.239589   0.184158   0.294031   0.059855
     42      -0.285499  -0.076919  -0.335926   0.083865   0.359869  -0.153930
     43       0.095856  -0.362871  -0.067117  -0.296345  -0.010374   0.154357
     44       0.039685  -0.202202  -0.051827  -0.158454   0.068126   0.179969
     45      -0.378566  -0.074589   0.315478  -0.133535  -0.343822   0.194150
     46       0.045683   0.079929  -0.024890   0.072007   0.067330   0.022836
     47       0.073692  -0.413790  -0.140925  -0.311219   0.148841   0.217763
                 36         37         38         39         40         41    
      0       0.021750   0.036232  -0.090117  -0.019826   0.021643   0.005397
      1       0.055279  -0.042570   0.009099  -0.082608  -0.010552  -0.003682
      2       0.102009  -0.084340  -0.029655   0.033938  -0.015758  -0.003903
      3      -0.017240   0.042212   0.092227   0.001568  -0.024792   0.008806
      4      -0.055834   0.038248  -0.012953  -0.082399  -0.003713   0.002261
      5      -0.101885   0.081785  -0.026289   0.040141  -0.014085   0.004758
      6      -0.019429  -0.091246   0.001226   0.010300   0.004328   0.007380
      7      -0.053345   0.006180   0.062770   0.082846   0.028250   0.048045
      8      -0.103354   0.004987  -0.071014   0.058437   0.004674   0.007643
      9       0.019996  -0.089258  -0.017930  -0.009466  -0.001132  -0.001370
     10       0.057766   0.019400  -0.091573  -0.014842  -0.013866  -0.015685
     11       0.101461   0.005629   0.028714  -0.097574   0.025301   0.027003
     12      -0.020009  -0.089253  -0.017863  -0.009659  -0.001139   0.001376
     13      -0.057768   0.019391  -0.091590  -0.014806  -0.013864   0.015685
     14      -0.101457   0.005620   0.028708  -0.097557   0.025301  -0.027004
     15      -0.270286   0.212312   0.171460   0.075016  -0.264492  -0.066912
     16      -0.088341   0.007770   0.071692   0.375149   0.128905   0.033213
     17      -0.196895   0.104046   0.299982  -0.141514   0.192539   0.048693
     18       0.017230   0.042233   0.092200   0.001747  -0.024790  -0.008818
     19       0.055902   0.038268  -0.012998  -0.082420  -0.003703  -0.002260
     20       0.101855   0.081785  -0.026246   0.040088  -0.014090  -0.004767
     21       0.018009   0.401508   0.036059   0.030239  -0.052850  -0.086836
     22      -0.128950  -0.064611  -0.007943   0.130322  -0.345066  -0.566878
     23       0.293872  -0.028396   0.361661  -0.177644  -0.057107  -0.093644
     24      -0.021764   0.036264  -0.090099  -0.020015   0.021645  -0.005410
     25      -0.055323  -0.042600   0.009048  -0.082586  -0.010542   0.003686
     26      -0.101985  -0.084342  -0.029606   0.033918  -0.015763   0.003914
     27      -0.077121   0.398468   0.064618   0.059465   0.013827   0.014551
     28      -0.319844  -0.084121   0.221373   0.274954   0.169375   0.177606
     29      -0.105893  -0.029397   0.213567   0.053443  -0.309128  -0.323233
     30       0.019473  -0.091243   0.001232   0.010485   0.004321  -0.007370
     31       0.053326   0.006170   0.062782   0.082847   0.028250  -0.048046
     32       0.103359   0.004980  -0.070991   0.058409   0.004675  -0.007643
     33      -0.215244   0.203454  -0.098673   0.042980   0.302968  -0.104059
     34       0.145823  -0.112160   0.104481   0.375006   0.045343  -0.016109
     35       0.185297  -0.142199   0.294965  -0.150658   0.172115  -0.058974
     36       0.270276   0.212331   0.171447   0.075040  -0.264508   0.067060
     37       0.088438   0.007701   0.071840   0.375363   0.128806  -0.033259
     38       0.196856   0.104032   0.299822  -0.141055   0.192590  -0.048811
     39       0.215219   0.203495  -0.098631   0.043021   0.302955   0.104190
     40      -0.145937  -0.112161   0.104568   0.375166   0.045242   0.016095
     41      -0.185283  -0.142235   0.294814  -0.150169   0.172163   0.059068
     42       0.077030   0.398441   0.064618   0.059866   0.013888  -0.014614
     43       0.319842  -0.084155   0.221366   0.274900   0.169363  -0.177598
     44       0.105902  -0.029322   0.213570   0.053441  -0.309126   0.323237
     45      -0.017960   0.401501   0.036134   0.029803  -0.052788   0.086735
     46       0.128926  -0.064529  -0.007921   0.130407  -0.345067   0.566873
     47      -0.293895  -0.028430   0.361611  -0.177567  -0.057107   0.093644
                 42         43         44         45         46         47    
      0      -0.026119  -0.028245  -0.011097  -0.024307   0.030457  -0.024499
      1       0.012845   0.013439   0.003897   0.011795  -0.015399   0.011941
      2       0.019907   0.019712   0.008036   0.016277  -0.023265   0.017835
      3      -0.017499   0.039975   0.009123   0.022578   0.039549  -0.028097
      4      -0.002806   0.005688  -0.000052   0.003302   0.006280  -0.004206
      5      -0.010980   0.022293   0.005332   0.011358   0.023240  -0.015963
      6      -0.002219   0.001150   0.007913   0.001715  -0.000983   0.004844
      7      -0.015383   0.000988   0.051195   0.010881   0.003131   0.031636
      8      -0.003497   0.000328   0.008780   0.000365   0.000447   0.005236
      9      -0.001663  -0.000667   0.000983  -0.001807  -0.001520   0.001274
     10      -0.018839   0.003926   0.012416  -0.022664  -0.000834   0.015606
     11       0.035675  -0.007033  -0.025228   0.039794   0.001740  -0.028483
     12       0.001671   0.000665   0.000988  -0.001812  -0.001519  -0.001279
     13       0.018837  -0.003924   0.012415  -0.022664  -0.000824  -0.015606
     14      -0.035675   0.007030  -0.025227   0.039796   0.001726   0.028484
     15       0.312996   0.328617   0.121409   0.269474  -0.351396   0.265246
     16      -0.152604  -0.159966  -0.057446  -0.131271   0.171885  -0.129266
     17      -0.228357  -0.238731  -0.088334  -0.194548   0.257044  -0.193085
     18       0.017494  -0.039972   0.009127   0.022575   0.039549   0.028096
     19       0.002798  -0.005673  -0.000054   0.003295   0.006266   0.004197
     20       0.010982  -0.022299   0.005336   0.011360   0.023247   0.015967
     21       0.027962  -0.002649  -0.089045  -0.018603  -0.003418  -0.052436
     22       0.183072  -0.013595  -0.580860  -0.121091  -0.033188  -0.342352
     23       0.030837  -0.002343  -0.096475  -0.018406  -0.005413  -0.056659
     24       0.026117   0.028248  -0.011099  -0.024308   0.030458   0.024501
     25      -0.012832  -0.013429   0.003895   0.011786  -0.015386  -0.011932
     26      -0.019910  -0.019719   0.008039   0.016281  -0.023270  -0.017840
     27       0.018735  -0.003156  -0.012356   0.020370   0.002525  -0.013792
     28       0.228596  -0.045523  -0.151761   0.250141   0.010661  -0.168917
     29      -0.417960   0.083009   0.279904  -0.454750  -0.019709   0.308291
     30       0.002215  -0.001150   0.007905   0.001715  -0.000985  -0.004840
     31       0.015383  -0.000987   0.051198   0.010884   0.003115  -0.031637
     32       0.003497  -0.000327   0.008780   0.000366   0.000446  -0.005236
     33       0.211870  -0.469775  -0.102494  -0.249565  -0.452061   0.304212
     34       0.031814  -0.070138  -0.013723  -0.037261  -0.068062   0.045529
     35       0.120957  -0.266638  -0.058398  -0.140104  -0.257691   0.172821
     36      -0.312968  -0.328656   0.121432   0.269478  -0.351403  -0.265257
     37       0.152466   0.159853  -0.057408  -0.131165   0.171748   0.129168
     38       0.228383   0.238808  -0.088367  -0.194592   0.257100   0.193132
     39      -0.211819   0.469732  -0.102537  -0.249532  -0.452055  -0.304203
     40      -0.031738   0.069979  -0.013697  -0.037176  -0.067916  -0.045432
     41      -0.120967   0.266699  -0.058440  -0.140132  -0.257770  -0.172870
     42      -0.018816   0.003170  -0.012409   0.020460   0.002521   0.013851
     43      -0.228581   0.045497  -0.151747   0.250140   0.010572   0.168912
     44       0.417957  -0.082968   0.279894  -0.454777  -0.019547  -0.308300
     45      -0.027928   0.002640  -0.088948  -0.018585  -0.003386   0.052378
     46      -0.183071   0.013553  -0.580900  -0.121122  -0.033014   0.342368
     47      -0.030838   0.002336  -0.096483  -0.018412  -0.005384   0.056662


-----------
IR SPECTRUM
-----------

 Mode    freq (cm**-1)   T**2         TX         TY         TZ
-------------------------------------------------------------------
   6:       595.78    0.000006  (  0.000206   0.000803   0.002348)
   7:       595.80    0.000002  (  0.000533   0.000103  -0.001289)
   8:       629.22    0.000000  (  0.000340   0.000423  -0.000061)
   9:       629.28    0.000000  (  0.000342  -0.000295   0.000080)
  10:       629.36    0.000001  (  0.001060  -0.000128   0.000009)
  11:       818.62    0.000003  (  0.000966   0.000522  -0.001360)
  12:       818.64    0.000002  (  0.000968   0.000357   0.001116)
  13:       818.75    0.000001  ( -0.000875  -0.000376   0.000559)
  14:       824.10    0.000047  (  0.006342   0.002015  -0.001643)
  15:       824.22    0.000015  (  0.001562  -0.000634   0.003448)
  16:       824.27    0.000013  ( -0.001847   0.002969  -0.000605)
  17:       834.91    0.000092  ( -0.001659   0.009376   0.000921)
  18:       849.32    6.913187  ( -2.456076   0.931341   0.116108)
  19:       849.36    6.885942  ( -0.507969  -1.043598  -2.353468)
  20:       849.49    6.902612  (  0.790466   2.223024  -1.155829)
  21:       896.31    0.000000  ( -0.000054   0.000149   0.000133)
  22:       896.37    0.000002  (  0.000301  -0.000192   0.001405)
  23:       997.49    0.000000  ( -0.000269   0.000238   0.000054)
  24:      1042.46    0.000001  ( -0.000214   0.000293  -0.000661)
  25:      1042.49    0.000001  ( -0.000516  -0.000456   0.000332)
  26:      1042.78    0.000009  (  0.000452  -0.002931   0.000404)
  27:      1080.41    0.000000  (  0.000111  -0.000053   0.000595)
  28:      1080.53    0.000000  (  0.000113  -0.000122   0.000364)
  29:      1123.85    0.000000  ( -0.000011  -0.000167   0.000130)
  30:      1123.90    0.000000  ( -0.000047  -0.000392  -0.000406)
  31:      1123.96    0.000001  ( -0.000733   0.000070  -0.000188)
  32:      1157.20    0.000006  ( -0.000533   0.000235   0.002457)
  33:      1157.23    0.000003  (  0.000401  -0.001470   0.001029)
  34:      1191.18    0.000004  ( -0.000352  -0.001657   0.000963)
  35:      1191.28    0.000001  ( -0.000126   0.000749  -0.000411)
  36:      1191.45    0.000000  ( -0.000037  -0.000015  -0.000050)
  37:      1225.30    5.725211  (  2.335769  -0.485119  -0.184540)
  38:      1225.33    5.712181  (  0.333810   0.749320   2.244832)
  39:      1225.44    5.724828  (  0.398221   2.220057  -0.798496)
  40:      3006.21    0.000991  (  0.007038   0.021827   0.021571)
  41:      3020.02    0.000004  ( -0.002022   0.000516   0.000195)
  42:      3020.09    0.000000  ( -0.000607   0.000134   0.000038)
  43:      3020.13    0.000001  (  0.000456   0.000889  -0.000501)
  44:      3026.80  120.901803  (  1.120409  10.926888  -0.499610)
  45:      3026.86  120.883268  ( -0.297120   0.534945  10.977651)
  46:      3026.90  120.816847  ( 10.930373  -1.105702   0.348176)
  47:      3043.56    0.000000  (  0.000011  -0.000076   0.000067)

The first frequency considered to be a vibration is 6
The total number of vibrations considered is 42


--------------------------
THERMOCHEMISTRY AT 298.15K
--------------------------

Temperature         ... 298.15 K
Pressure            ... 1.00 atm
Total Mass          ... 104.15 AMU

Throughout the following assumptions are being made:
  (1) The electronic state is orbitally nondegenerate
  (2) There are no thermally accessible electronically excited states
  (3) Hindered rotations indicated by low frequency modes are not
      treated as such but are treated as vibrations and this may
      cause some error
  (4) All equations used are the standard statistical mechanics
      equations for an ideal gas
  (5) All vibrations are strictly harmonic

freq.     595.78  E(vib)   ...       0.10 
freq.     595.80  E(vib)   ...       0.10 
freq.     629.22  E(vib)   ...       0.09 
freq.     629.28  E(vib)   ...       0.09 
freq.     629.36  E(vib)   ...       0.09 
freq.     818.62  E(vib)   ...       0.05 
freq.     818.64  E(vib)   ...       0.05 
freq.     818.75  E(vib)   ...       0.05 
freq.     824.10  E(vib)   ...       0.05 
freq.     824.22  E(vib)   ...       0.04 
freq.     824.27  E(vib)   ...       0.04 
freq.     834.91  E(vib)   ...       0.04 
freq.     849.32  E(vib)   ...       0.04 
freq.     849.36  E(vib)   ...       0.04 
freq.     849.49  E(vib)   ...       0.04 
freq.     896.31  E(vib)   ...       0.03 
freq.     896.37  E(vib)   ...       0.03 
freq.     997.49  E(vib)   ...       0.02 
freq.    1042.46  E(vib)   ...       0.02 
freq.    1042.49  E(vib)   ...       0.02 
freq.    1042.78  E(vib)   ...       0.02 
freq.    1080.41  E(vib)   ...       0.02 
freq.    1080.53  E(vib)   ...       0.02 
freq.    1123.85  E(vib)   ...       0.01 
freq.    1123.90  E(vib)   ...       0.01 
freq.    1123.96  E(vib)   ...       0.01 
freq.    1157.20  E(vib)   ...       0.01 
freq.    1157.23  E(vib)   ...       0.01 
freq.    1191.18  E(vib)   ...       0.01 
freq.    1191.28  E(vib)   ...       0.01 
freq.    1191.45  E(vib)   ...       0.01 
freq.    1225.30  E(vib)   ...       0.01 
freq.    1225.33  E(vib)   ...       0.01 
freq.    1225.44  E(vib)   ...       0.01 
freq.    3006.21  E(vib)   ...       0.00 
freq.    3020.02  E(vib)   ...       0.00 
freq.    3020.09  E(vib)   ...       0.00 
freq.    3020.13  E(vib)   ...       0.00 
freq.    3026.80  E(vib)   ...       0.00 
freq.    3026.86  E(vib)   ...       0.00 
freq.    3026.90  E(vib)   ...       0.00 
freq.    3043.56  E(vib)   ...       0.00 

------------
INNER ENERGY
------------

The inner energy is: U= E(el) + E(ZPE) + E(vib) + E(rot) + E(trans)
    E(el)   - is the total energy from the electronic structure calculation
              = E(kin-el) + E(nuc-el) + E(el-el) + E(nuc-nuc)
    E(ZPE)  - the the zero temperature vibrational energy from the frequency calculation
    E(vib)  - the the finite temperature correction to E(ZPE) due to population
              of excited vibrational states
    E(rot)  - is the rotational thermal energy
    E(trans)- is the translational thermal energy

Summary of contributions to the inner energy U:
Electronic energy                ...   -309.18019024 Eh
Zero point energy                ...      0.12893662 Eh      80.91 kcal/mol
Thermal vibrational correction   ...      0.00195742 Eh       1.23 kcal/mol
Thermal rotational correction    ...      0.00141627 Eh       0.89 kcal/mol
Thermal translational correction ...      0.00141627 Eh       0.89 kcal/mol
-----------------------------------------------------------------------
Total thermal energy                   -309.04646365 Eh


Summary of corrections to the electronic energy:
(perhaps to be used in another calculation)
Total thermal correction                  0.00478997 Eh       3.01 kcal/mol
Non-thermal (ZPE) correction              0.12893662 Eh      80.91 kcal/mol
-----------------------------------------------------------------------
Total correction                          0.13372659 Eh      83.91 kcal/mol


--------
ENTHALPY
--------

The enthalpy is H = U + kB*T
                kB is Boltzmann's constant
Total free energy                 ...   -309.04646365 Eh 
Thermal Enthalpy correction       ...      0.00094421 Eh       0.59 kcal/mol
-----------------------------------------------------------------------
Total Enthalpy                    ...   -309.04551944 Eh


Note: Only C1 symmetry has been detected, increase convergence thresholds 
      if your molecule has a higher symmetry. Symmetry factor of 1.0 is   
      used for the rotational entropy correction. 
 

Note: Rotational entropy computed according to Herzberg 
Infrared and Raman Spectra, Chapter V,1, Van Nostrand Reinhold, 1945 
Point Group:  C1, Symmetry Number:   1  
Rotational constants in cm-1:     0.110313     0.110309     0.110307 

Vibrational entropy computed according to the QRRHO of S. Grimme
Chem.Eur.J. 2012 18 9955


-------
ENTROPY
-------

The entropy contributions are T*S = T*(S(el)+S(vib)+S(rot)+S(trans))
     S(el)   - electronic entropy
     S(vib)  - vibrational entropy
     S(rot)  - rotational entropy
     S(trans)- translational entropy
The entropies will be listed as mutliplied by the temperature to get
units of energy

Electronic entropy                ...      0.00000000 Eh      0.00 kcal/mol
Vibrational entropy               ...      0.00247925 Eh      1.56 kcal/mol
Rotational entropy                ...      0.01263293 Eh      7.93 kcal/mol
Translational entropy             ...      0.01892886 Eh     11.88 kcal/mol
-----------------------------------------------------------------------
Final entropy term                ...      0.03404105 Eh     21.36 kcal/mol

In case the symmetry of your molecule has not been determined correctly
or in case you have a reason to use a different symmetry number we print 
out the resulting rotational entropy values for sn=1,12 :
 --------------------------------------------------------
|  sn= 1 | S(rot)=       0.01263293 Eh      7.93 kcal/mol|
|  sn= 2 | S(rot)=       0.01197848 Eh      7.52 kcal/mol|
|  sn= 3 | S(rot)=       0.01159564 Eh      7.28 kcal/mol|
|  sn= 4 | S(rot)=       0.01132402 Eh      7.11 kcal/mol|
|  sn= 5 | S(rot)=       0.01111333 Eh      6.97 kcal/mol|
|  sn= 6 | S(rot)=       0.01094119 Eh      6.87 kcal/mol|
|  sn= 7 | S(rot)=       0.01079564 Eh      6.77 kcal/mol|
|  sn= 8 | S(rot)=       0.01066956 Eh      6.70 kcal/mol|
|  sn= 9 | S(rot)=       0.01055836 Eh      6.63 kcal/mol|
|  sn=10 | S(rot)=       0.01045888 Eh      6.56 kcal/mol|
|  sn=11 | S(rot)=       0.01036889 Eh      6.51 kcal/mol|
|  sn=12 | S(rot)=       0.01028673 Eh      6.46 kcal/mol|
 --------------------------------------------------------


-------------------
GIBBS FREE ENERGY
-------------------

The Gibbs free energy is G = H - T*S

Total enthalpy                    ...   -309.04551944 Eh 
Total entropy correction          ...     -0.03404105 Eh    -21.36 kcal/mol
-----------------------------------------------------------------------
Final Gibbs free energy         ...   -309.07956049 Eh

For completeness - the Gibbs free energy minus the electronic energy
G-E(el)                           ...      0.10062975 Eh     63.15 kcal/mol


Timings for individual modules:

Sum of individual times         ...      247.277 sec (=   4.121 min)
GTO integral calculation        ...        7.584 sec (=   0.126 min)   3.1 %
SCF iterations                  ...      112.041 sec (=   1.867 min)  45.3 %
SCF Gradient evaluation         ...       40.480 sec (=   0.675 min)  16.4 %
Geometry relaxation             ...        1.511 sec (=   0.025 min)   0.6 %
Analytical frequency calculation...       85.662 sec (=   1.428 min)  34.6 %
                             ****ORCA TERMINATED NORMALLY****
TOTAL RUN TIME: 0 days 0 hours 4 minutes 9 seconds 797 msec
