
                                 *****************
                                 * O   R   C   A *
                                 *****************

           --- An Ab Initio, DFT and Semiempirical electronic structure package ---

                  #######################################################
                  #                        -***-                        #
                  #          Department of theory and spectroscopy      #
                  #               Directorship: Frank Neese             #
                  #        Max Planck Institute fuer Kohlenforschung    #
                  #                Kaiser Wilhelm Platz 1               #
                  #                 D-45470 Muelheim/Ruhr               #
                  #                      Germany                        #
                  #                                                     #
                  #                  All rights reserved                #
                  #                        -***-                        #
                  #######################################################


                         Program Version 4.2.1 -  RELEASE  -


 With contributions from (in alphabetic order):
   Daniel Aravena         : Magnetic Suceptibility
   Michael Atanasov       : Ab Initio Ligand Field Theory (pilot matlab implementation)
   Alexander A. Auer      : GIAO ZORA, VPT2
   Ute Becker             : Parallelization
   Giovanni Bistoni       : ED, misc. LED, open-shell LED, HFLD
   Martin Brehm           : Molecular dynamics
   Dmytro Bykov           : SCF Hessian
   Vijay G. Chilkuri      : MRCI spin determinant printing, contributions to CSF-ICE
   Dipayan Datta          : RHF DLPNO-CCSD density
   Achintya Kumar Dutta   : EOM-CC, STEOM-CC
   Dmitry Ganyushin       : Spin-Orbit,Spin-Spin,Magnetic field MRCI
   Miquel Garcia          : C-PCM Hessian, Gaussian charge scheme
   Yang Guo               : DLPNO-NEVPT2, CIM, IAO-localization
   Andreas Hansen         : Spin unrestricted coupled pair/coupled cluster methods
   Benjamin Helmich-Paris : CASSCF linear response (MC-RPA)
   Lee Huntington         : MR-EOM, pCC
   Robert Izsak           : Overlap fitted RIJCOSX, COSX-SCS-MP3, EOM
   Christian Kollmar      : KDIIS, OOCD, Brueckner-CCSD(T), CCSD density
   Simone Kossmann        : Meta GGA functionals, TD-DFT gradient, OOMP2, MP2 Hessian
   Martin Krupicka        : AUTO-CI
   Lucas Lang             : DCDCAS
   Dagmar Lenk            : GEPOL surface, SMD
   Dimitrios Liakos       : Extrapolation schemes; Compound Job, initial MDCI parallelization
   Dimitrios Manganas     : Further ROCIS development; embedding schemes
   Dimitrios Pantazis     : SARC Basis sets
   Taras Petrenko         : DFT Hessian,TD-DFT gradient, ASA, ECA, R-Raman, ABS, FL, XAS/XES, NRVS
   Peter Pinski           : DLPNO-MP2, DLPNO-MP2 Gradient
   Christoph Reimann      : Effective Core Potentials
   Marius Retegan         : Local ZFS, SOC
   Christoph Riplinger    : Optimizer, TS searches, QM/MM, DLPNO-CCSD(T), (RO)-DLPNO pert. Triples
   Tobias Risthaus        : Range-separated hybrids, TD-DFT gradient, RPA, STAB
   Michael Roemelt        : Original ROCIS implementation
   Masaaki Saitow         : Open-shell DLPNO-CCSD energy and density
   Barbara Sandhoefer     : DKH picture change effects
   Avijit Sen             : IP-ROCIS
   Kantharuban Sivalingam : CASSCF convergence, NEVPT2, FIC-MRCI
   Bernardo de Souza      : ESD, SOC TD-DFT
   Georgi Stoychev        : AutoAux, RI-MP2 NMR
   Willem Van den Heuvel  : Paramagnetic NMR
   Boris Wezisla          : Elementary symmetry handling
   Frank Wennmohs         : Technical directorship


 We gratefully acknowledge several colleagues who have allowed us to
 interface, adapt or use parts of their codes:
   Stefan Grimme, W. Hujo, H. Kruse,             : VdW corrections, initial TS optimization,
                  C. Bannwarth                     DFT functionals, gCP, sTDA/sTD-DF
   Ed Valeev, F. Pavosevic, A. Kumar             : LibInt (2-el integral package), F12 methods
   Garnet Chan, S. Sharma, J. Yang, R. Olivares  : DMRG
   Ulf Ekstrom                                   : XCFun DFT Library
   Mihaly Kallay                                 : mrcc  (arbitrary order and MRCC methods)
   Andreas Klamt, Michael Diedenhofen            : otool_cosmo (COSMO solvation model)
   Jiri Pittner, Ondrej Demel                    : Mk-CCSD
   Frank Weinhold                                : gennbo (NPA and NBO analysis)
   Christopher J. Cramer and Donald G. Truhlar   : smd solvation model
   Lars Goerigk                                  : TD-DFT with DH, B97 family of functionals
   V. Asgeirsson, H. Jonsson                     : NEB implementation
   FAccTs GmbH                                   : IRC, NEB, NEB-TS, Multilevel, MM, QM/MM, CI optimization
   S Lehtola, MJT Oliveira, MAL Marques          : LibXC Library


 Your calculation uses the libint2 library for the computation of 2-el integrals
 For citations please refer to: http://libint.valeyev.net

 Your ORCA version has been built with support for libXC version: 4.2.3
 For citations please refer to: https://tddft.org/programs/libxc/

 This ORCA versions uses:
   CBLAS   interface :  Fast vector & matrix operations
   LAPACKE interface :  Fast linear algebra routines
   SCALAPACK package :  Parallel linear algebra routines


Your calculation utilizes the geometrical counterpoise correction gCP
Please cite in your paper:
H.Kruse, S. Grimme J.Chem.Phys., 136, (2012), 154101 
   

Your calculation utilizes the atom-pairwise dispersion correction
based on tight binding partial charges (D4)
Cite in your paper:
E.Caldeweyher, C.Bannwarth, S.Grimme, J.Chem.Phys., (2017), 147, 034112.
E.Caldeweyher, S.Ehlert, A.Hansen, H.Neugebauer, S.Grimme, J.Chem.Phys., (2018), in progress.
   

----- Orbital basis set information -----
Your calculation utilizes the basis: def2-SVP
   F. Weigend and R. Ahlrichs, Phys. Chem. Chem. Phys. 7, 3297 (2005).

----- AuxJ basis set information -----
Your calculation utilizes the auxiliary basis: def2/J
   F. Weigend, Phys. Chem. Chem. Phys. 8, 1057 (2006).

================================================================================
                                        WARNINGS
                       Please study these warnings very carefully!
================================================================================


WARNING: Geometry Optimization
  ===> : Switching off AutoStart
         For restart on a previous wavefunction, please use MOREAD

INFO   : the flag for use of LIBINT has been found!

================================================================================
                                       INPUT FILE
================================================================================
NAME = cyclohexane-boat.inp
|  1> ! revPBE D4 gCP(DFT/SVP) def2-SVP Opt Freq TightOpt TightSCF Grid4 FinalGrid5 LargePrint
|  2> 
|  3> %pal
|  4>  nprocs 12
|  5> end
|  6> 
|  7> *xyz 0 1
|  8> C        1.402803928      0.000000000     -0.383781544
|  9> C        0.752349920      1.263611595      0.191881694
| 10> C       -0.752349920     -1.263611595      0.191881694
| 11> C       -1.402803928      0.000000000     -0.383781544
| 12> C       -0.752349920      1.263611595      0.191881694
| 13> H       -2.500748317      0.000000000     -0.194546816
| 14> H       -1.285107018      0.000000000     -1.479531006
| 15> C        0.752349920     -1.263611595      0.191881694
| 16> H       -1.073420007     -2.102545030     -0.328366379
| 17> H       -1.086890964     -1.391503421      1.165513379
| 18> H        1.285107018      0.000000000     -1.479531006
| 19> H        2.500748317      0.000000000     -0.194546816
| 20> H        1.073420007     -2.102545030     -0.328366379
| 21> H        1.086890964     -1.391503421      1.165513379
| 22> H        1.086890964      1.391503421      1.165513379
| 23> H        1.073420007      2.102545030     -0.328366379
| 24> H       -1.086890964      1.391503421      1.165513379
| 25> H       -1.073420007      2.102545030     -0.328366379
| 26> *
| 27> 
| 28>                          ****END OF INPUT****
================================================================================

                       *****************************
                       * Geometry Optimization Run *
                       *****************************

Geometry optimization settings:
Update method            Update   .... BFGS
Choice of coordinates    CoordSys .... Z-matrix Internals
Initial Hessian          InHess   .... Almoef's Model

Convergence Tolerances:
Energy Change            TolE     ....  1.0000e-06 Eh
Max. Gradient            TolMAXG  ....  1.0000e-04 Eh/bohr
RMS Gradient             TolRMSG  ....  3.0000e-05 Eh/bohr
Max. Displacement        TolMAXD  ....  1.0000e-03 bohr
RMS Displacement         TolRMSD  ....  6.0000e-04 bohr
Strict Convergence                ....  False
------------------------------------------------------------------------------
                        ORCA OPTIMIZATION COORDINATE SETUP
------------------------------------------------------------------------------

The optimization will be done in new redundant internal coordinates
Making redundant internal coordinates   ...  (new redundants) done
Evaluating the initial hessian          ...  (Almloef) done
Evaluating the coordinates              ...  done
Calculating the B-matrix                .... done
Calculating the G-matrix                .... done
Diagonalizing the G-matrix              .... done
The first mode is                       ....   60
The number of degrees of freedom        ....   48

    -----------------------------------------------------------------
                    Redundant Internal Coordinates


    -----------------------------------------------------------------
         Definition                    Initial Value    Approx d2E/dq
    -----------------------------------------------------------------
      1. B(C   1,C   0)                  1.5334         0.368992   
      2. B(C   3,C   2)                  1.5334         0.368992   
      3. B(C   4,C   1)                  1.5047         0.409961   
      4. B(C   4,C   3)                  1.5334         0.368992   
      5. B(H   5,C   3)                  1.1141         0.329550   
      6. B(H   6,C   3)                  1.1021         0.344504   
      7. B(C   7,C   0)                  1.5334         0.368992   
      8. B(C   7,C   2)                  1.5047         0.409961   
      9. B(H   8,C   2)                  1.0381         0.435815   
     10. B(H   9,C   2)                  1.0374         0.436835   
     11. B(H  10,C   0)                  1.1021         0.344504   
     12. B(H  11,C   0)                  1.1141         0.329550   
     13. B(H  12,C   7)                  1.0381         0.435815   
     14. B(H  13,C   7)                  1.0374         0.436835   
     15. B(H  14,C   1)                  1.0374         0.436835   
     16. B(H  15,C   1)                  1.0381         0.435815   
     17. B(H  16,C   4)                  1.0374         0.436835   
     18. B(H  17,C   4)                  1.0381         0.435815   
     19. A(C   7,C   0,H  10)          109.1459         0.321322   
     20. A(C   7,C   0,H  11)          110.7488         0.319001   
     21. A(C   1,C   0,H  11)          110.7488         0.319001   
     22. A(C   1,C   0,H  10)          109.1459         0.321322   
     23. A(H  10,C   0,H  11)          105.9098         0.284857   
     24. A(C   1,C   0,C   7)          110.9907         0.361823   
     25. A(H  14,C   1,H  15)          105.7231         0.309167   
     26. A(C   0,C   1,C   4)          115.1001         0.368402   
     27. A(C   0,C   1,H  15)          110.2822         0.334020   
     28. A(C   4,C   1,H  15)          108.0171         0.339929   
     29. A(C   4,C   1,H  14)          108.8127         0.340062   
     30. A(C   0,C   1,H  14)          108.4901         0.334150   
     31. A(C   7,C   2,H   9)          108.8127         0.340062   
     32. A(C   3,C   2,H   9)          108.4901         0.334150   
     33. A(C   7,C   2,H   8)          108.0171         0.339929   
     34. A(C   3,C   2,H   8)          110.2822         0.334020   
     35. A(H   8,C   2,H   9)          105.7231         0.309167   
     36. A(C   3,C   2,C   7)          115.1001         0.368402   
     37. A(C   4,C   3,H   6)          109.1459         0.321322   
     38. A(C   2,C   3,H   6)          109.1459         0.321322   
     39. A(H   5,C   3,H   6)          105.9098         0.284857   
     40. A(C   2,C   3,C   4)          110.9907         0.361823   
     41. A(C   4,C   3,H   5)          110.7488         0.319001   
     42. A(C   2,C   3,H   5)          110.7488         0.319001   
     43. A(C   1,C   4,C   3)          115.1001         0.368402   
     44. A(H  16,C   4,H  17)          105.7231         0.309167   
     45. A(C   1,C   4,H  17)          108.0171         0.339929   
     46. A(C   3,C   4,H  16)          108.4901         0.334150   
     47. A(C   1,C   4,H  16)          108.8127         0.340062   
     48. A(C   3,C   4,H  17)          110.2822         0.334020   
     49. A(H  12,C   7,H  13)          105.7231         0.309167   
     50. A(C   2,C   7,H  13)          108.8127         0.340062   
     51. A(C   0,C   7,H  13)          108.4901         0.334150   
     52. A(C   2,C   7,H  12)          108.0171         0.339929   
     53. A(C   0,C   7,H  12)          110.2822         0.334020   
     54. A(C   0,C   7,C   2)          115.1001         0.368402   
     55. D(H  14,C   1,C   0,H  10)   -164.5570         0.010888   
     56. D(H  14,C   1,C   0,H  11)    -48.3365         0.010888   
     57. D(H  14,C   1,C   0,C   7)     75.1077         0.010888   
     58. D(C   4,C   1,C   0,H  11)   -170.4862         0.010888   
     59. D(H  15,C   1,C   0,C   7)   -169.5384         0.010888   
     60. D(C   4,C   1,C   0,H  10)     73.2934         0.010888   
     61. D(H  15,C   1,C   0,H  11)     67.0174         0.010888   
     62. D(H  15,C   1,C   0,H  10)    -49.2030         0.010888   
     63. D(C   4,C   1,C   0,C   7)    -47.0420         0.010888   
     64. D(C   4,C   3,C   2,H   9)     75.1077         0.010888   
     65. D(H   5,C   3,C   2,C   7)   -170.4862         0.010888   
     66. D(H   5,C   3,C   2,H   8)     67.0174         0.010888   
     67. D(H   5,C   3,C   2,H   9)    -48.3365         0.010888   
     68. D(C   4,C   3,C   2,C   7)    -47.0420         0.010888   
     69. D(H   6,C   3,C   2,H   9)   -164.5570         0.010888   
     70. D(H   6,C   3,C   2,H   8)    -49.2030         0.010888   
     71. D(H   6,C   3,C   2,C   7)     73.2934         0.010888   
     72. D(C   4,C   3,C   2,H   8)   -169.5384         0.010888   
     73. D(C   1,C   4,C   3,H   6)    -73.2934         0.010888   
     74. D(C   1,C   4,C   3,H   5)    170.4862         0.010888   
     75. D(C   1,C   4,C   3,C   2)     47.0420         0.010888   
     76. D(H  16,C   4,C   1,H  15)   -114.3210         0.013314   
     77. D(H  16,C   4,C   1,H  14)      0.0000         0.013314   
     78. D(H  16,C   4,C   1,C   0)    121.9758         0.013314   
     79. D(H  17,C   4,C   1,C   0)   -123.7031         0.013314   
     80. D(C   3,C   4,C   1,H  15)    123.7031         0.013314   
     81. D(H  17,C   4,C   1,H  14)    114.3210         0.013314   
     82. D(C   3,C   4,C   1,H  14)   -121.9758         0.013314   
     83. D(C   3,C   4,C   1,C   0)      0.0000         0.013314   
     84. D(H  16,C   4,C   3,C   2)    -75.1077         0.010888   
     85. D(H  17,C   4,C   3,H   6)     49.2030         0.010888   
     86. D(H  17,C   4,C   3,H   5)    -67.0174         0.010888   
     87. D(H  17,C   4,C   3,C   2)    169.5384         0.010888   
     88. D(H  16,C   4,C   3,H   6)    164.5570         0.010888   
     89. D(H  16,C   4,C   3,H   5)     48.3365         0.010888   
     90. D(H  17,C   4,C   1,H  15)      0.0000         0.013314   
     91. D(H  13,C   7,C   2,H   9)      0.0000         0.013314   
     92. D(H  13,C   7,C   2,H   8)   -114.3210         0.013314   
     93. D(H  13,C   7,C   2,C   3)    121.9758         0.013314   
     94. D(H  12,C   7,C   2,H   9)    114.3210         0.013314   
     95. D(H  12,C   7,C   2,H   8)      0.0000         0.013314   
     96. D(H  12,C   7,C   2,C   3)   -123.7031         0.013314   
     97. D(C   0,C   7,C   2,H   9)   -121.9758         0.013314   
     98. D(C   0,C   7,C   2,H   8)    123.7031         0.013314   
     99. D(C   0,C   7,C   2,C   3)      0.0000         0.013314   
    100. D(H  13,C   7,C   0,H  11)     48.3365         0.010888   
    101. D(H  13,C   7,C   0,H  10)    164.5570         0.010888   
    102. D(H  13,C   7,C   0,C   1)    -75.1077         0.010888   
    103. D(H  12,C   7,C   0,H  11)    -67.0174         0.010888   
    104. D(H  12,C   7,C   0,H  10)     49.2030         0.010888   
    105. D(H  12,C   7,C   0,C   1)    169.5384         0.010888   
    106. D(C   2,C   7,C   0,H  11)    170.4862         0.010888   
    107. D(C   2,C   7,C   0,H  10)    -73.2934         0.010888   
    108. D(C   2,C   7,C   0,C   1)     47.0420         0.010888   
    -----------------------------------------------------------------

Number of atoms                         .... 18
Number of degrees of freedom            .... 108

         *************************************************************
         *                GEOMETRY OPTIMIZATION CYCLE   1            *
         *************************************************************
---------------------------------
CARTESIAN COORDINATES (ANGSTROEM)
---------------------------------
  C      1.402804    0.000000   -0.383782
  C      0.752350    1.263612    0.191882
  C     -0.752350   -1.263612    0.191882
  C     -1.402804    0.000000   -0.383782
  C     -0.752350    1.263612    0.191882
  H     -2.500748    0.000000   -0.194547
  H     -1.285107    0.000000   -1.479531
  C      0.752350   -1.263612    0.191882
  H     -1.073420   -2.102545   -0.328366
  H     -1.086891   -1.391503    1.165513
  H      1.285107    0.000000   -1.479531
  H      2.500748    0.000000   -0.194547
  H      1.073420   -2.102545   -0.328366
  H      1.086891   -1.391503    1.165513
  H      1.086891    1.391503    1.165513
  H      1.073420    2.102545   -0.328366
  H     -1.086891    1.391503    1.165513
  H     -1.073420    2.102545   -0.328366

----------------------------
CARTESIAN COORDINATES (A.U.)
----------------------------
  NO LB      ZA    FRAG     MASS         X           Y           Z
   0 C     6.0000    0    12.011    2.650915    0.000000   -0.725242
   1 C     6.0000    0    12.011    1.421735    2.387880    0.362604
   2 C     6.0000    0    12.011   -1.421735   -2.387880    0.362604
   3 C     6.0000    0    12.011   -2.650915    0.000000   -0.725242
   4 C     6.0000    0    12.011   -1.421735    2.387880    0.362604
   5 H     1.0000    0     1.008   -4.725729    0.000000   -0.367640
   6 H     1.0000    0     1.008   -2.428500    0.000000   -2.795908
   7 C     6.0000    0    12.011    1.421735   -2.387880    0.362604
   8 H     1.0000    0     1.008   -2.028470   -3.973234   -0.620523
   9 H     1.0000    0     1.008   -2.053926   -2.629560    2.202501
  10 H     1.0000    0     1.008    2.428500    0.000000   -2.795908
  11 H     1.0000    0     1.008    4.725729    0.000000   -0.367640
  12 H     1.0000    0     1.008    2.028470   -3.973234   -0.620523
  13 H     1.0000    0     1.008    2.053926   -2.629560    2.202501
  14 H     1.0000    0     1.008    2.053926    2.629560    2.202501
  15 H     1.0000    0     1.008    2.028470    3.973234   -0.620523
  16 H     1.0000    0     1.008   -2.053926    2.629560    2.202501
  17 H     1.0000    0     1.008   -2.028470    3.973234   -0.620523

--------------------------------
INTERNAL COORDINATES (ANGSTROEM)
--------------------------------
 C      0   0   0     0.000000000000     0.00000000     0.00000000
 C      1   0   0     1.533359984846     0.00000000     0.00000000
 C      1   2   0     2.563745411532    88.01010080     0.00000000
 C      3   1   2     1.533359984846    82.30654630    43.13337010
 C      2   1   3     1.504699840000   115.10014803   335.86324116
 H      4   3   1     1.114132695696   110.74884925   189.51382020
 H      4   3   1     1.102052379017   109.14591196    73.29335425
 C      3   1   2     1.504699840000    32.79360173   223.13337010
 H      3   1   2     1.038052680064   123.07972733   152.36954868
 H      3   1   2     1.037416351960   122.85925072   296.05267282
 H      1   2   3     1.102052379017   109.14591196    97.43011309
 H      1   2   3     1.114132695696   110.74884925   213.65057905
 H      8   3   1     1.038052680064   108.01707313   236.29688196
 H      8   3   1     1.037416351960   108.81268062   121.97584489
 H      2   1   3     1.037416351960   108.49009099    98.01291576
 H      2   1   3     1.038052680064   110.28221544   213.36684983
 H      5   2   1     1.037416351960   108.81268062   121.97584489
 H      5   2   1     1.038052680064   108.01707313   236.29688196

---------------------------
INTERNAL COORDINATES (A.U.)
---------------------------
 C      0   0   0     0.000000000000     0.00000000     0.00000000
 C      1   0   0     2.897630436072     0.00000000     0.00000000
 C      1   2   0     4.844776704893    88.01010080     0.00000000
 C      3   1   2     2.897630436072    82.30654630    43.13337010
 C      2   1   3     2.843470611355   115.10014803   335.86324116
 H      4   3   1     2.105405671712   110.74884925   189.51382020
 H      4   3   1     2.082577181578   109.14591196    73.29335425
 C      3   1   2     2.843470611355    32.79360173   223.13337010
 H      3   1   2     1.961635277903   123.07972733   152.36954868
 H      3   1   2     1.960432792056   122.85925072   296.05267282
 H      1   2   3     2.082577181578   109.14591196    97.43011309
 H      1   2   3     2.105405671712   110.74884925   213.65057905
 H      8   3   1     1.961635277903   108.01707313   236.29688196
 H      8   3   1     1.960432792056   108.81268062   121.97584489
 H      2   1   3     1.960432792056   108.49009099    98.01291576
 H      2   1   3     1.961635277903   110.28221544   213.36684983
 H      5   2   1     1.960432792056   108.81268062   121.97584489
 H      5   2   1     1.961635277903   108.01707313   236.29688196

---------------------
BASIS SET INFORMATION
---------------------
There are 2 groups of distinct atoms

 Group   1 Type C   : 7s4p1d contracted to 3s2p1d pattern {511/31/1}
 Group   2 Type H   : 4s1p contracted to 2s1p pattern {31/1}

Atom   0C    basis set group =>   1
Atom   1C    basis set group =>   1
Atom   2C    basis set group =>   1
Atom   3C    basis set group =>   1
Atom   4C    basis set group =>   1
Atom   5H    basis set group =>   2
Atom   6H    basis set group =>   2
Atom   7C    basis set group =>   1
Atom   8H    basis set group =>   2
Atom   9H    basis set group =>   2
Atom  10H    basis set group =>   2
Atom  11H    basis set group =>   2
Atom  12H    basis set group =>   2
Atom  13H    basis set group =>   2
Atom  14H    basis set group =>   2
Atom  15H    basis set group =>   2
Atom  16H    basis set group =>   2
Atom  17H    basis set group =>   2

-------------------------
BASIS SET IN INPUT FORMAT
-------------------------

 # Basis set for element : H 
 NewGTO H 
 S 3 
   1      13.0107010000      0.0334854848
   2       1.9622572000      0.2347218709
   3       0.4445379600      0.8137702853
 S 1 
   1       0.1219496200      1.0000000000
 P 1 
   1       0.8000000000      1.0000000000
  end;

 # Basis set for element : C 
 NewGTO C 
 S 5 
   1    1238.4016938000      0.0055173650
   2     186.2900499200      0.0410888285
   3      42.2511763460      0.1822538213
   4      11.6765579320      0.4682845944
   5       3.5930506482      0.4457581734
 S 1 
   1       0.4024514736      1.0000000000
 S 1 
   1       0.1309018267      1.0000000000
 P 3 
   1       9.4680970621      0.0568883320
   2       2.0103545142      0.3129405934
   3       0.5477100471      0.7606501651
 P 1 
   1       0.1526861379      1.0000000000
 D 1 
   1       0.8000000000      1.0000000000
  end;

---------------------------------
AUXILIARY/J BASIS SET INFORMATION
---------------------------------
There are 2 groups of distinct atoms

 Group   1 Type C   : 12s5p4d2f1g contracted to 6s4p3d1f1g pattern {711111/2111/211/2/1}
 Group   2 Type H   : 5s2p1d contracted to 3s1p1d pattern {311/2/1}

Atom   0C    basis set group =>   1
Atom   1C    basis set group =>   1
Atom   2C    basis set group =>   1
Atom   3C    basis set group =>   1
Atom   4C    basis set group =>   1
Atom   5H    basis set group =>   2
Atom   6H    basis set group =>   2
Atom   7C    basis set group =>   1
Atom   8H    basis set group =>   2
Atom   9H    basis set group =>   2
Atom  10H    basis set group =>   2
Atom  11H    basis set group =>   2
Atom  12H    basis set group =>   2
Atom  13H    basis set group =>   2
Atom  14H    basis set group =>   2
Atom  15H    basis set group =>   2
Atom  16H    basis set group =>   2
Atom  17H    basis set group =>   2

-------------------------------------
AUXILIARY/J BASIS SET IN INPUT FORMAT
-------------------------------------

 # Auxiliary/J basis set for element : H 
 NewAuxJGTO H 
 S 3 
   1      15.6752927000      0.1007184237
   2       3.6063578000      0.3404257499
   3       1.2080016000      0.6491996172
 S 1 
   1       0.4726794000      1.0000000000
 S 1 
   1       0.2018100000      1.0000000000
 P 2 
   1       2.0281365000      0.5596620919
   2       0.5358730000      0.5596620919
 D 1 
   1       2.2165124000      1.0000000000
  end;

 # Auxiliary/J basis set for element : C 
 NewAuxJGTO C 
 S 7 
   1    1861.0916331000      0.0134602335
   2     642.9939764000      0.0299160374
   3     235.1105725000      0.1008649584
   4      90.7028894000      0.2370970548
   5      36.7794552000      0.3924037254
   6      15.6046273000      0.3195862154
   7       6.8907294000      0.0530104441
 S 1 
   1       3.1478850000     -1.0000000000
 S 1 
   1       1.4777287000      1.0000000000
 S 1 
   1       0.7076466000      1.0000000000
 S 1 
   1       0.3430122000      1.0000000000
 S 1 
   1       0.1669453000      1.0000000000
 P 2 
   1      13.5472892000     -0.6769313712
   2       5.4669419000     -0.3779500978
 P 1 
   1       2.1751721000      1.0000000000
 P 1 
   1       0.8582194000      1.0000000000
 P 1 
   1       0.3376720000      1.0000000000
 D 2 
   1       5.9287253000     -0.3533329857
   2       1.9809209000     -0.7456525731
 D 1 
   1       0.8055417000     -1.0000000000
 D 1 
   1       0.3531244000     -1.0000000000
 F 2 
   1       1.6755626000      0.6311076882
   2       0.5997536000      0.4968166032
 G 1 
   1       1.0024600000     -1.0000000000
  end;



           ************************************************************
           *        Program running with 12 parallel MPI-processes    *
           *              working on a common directory               *
           ************************************************************
------------------------------------------------------------------------------
                           ORCA GTO INTEGRAL CALCULATION
                           -- RI-GTO INTEGRALS CHOSEN --
------------------------------------------------------------------------------

                         BASIS SET STATISTICS AND STARTUP INFO

Gaussian basis set:
 # of primitive gaussian shells          ...  132
 # of primitive gaussian functions       ...  228
 # of contracted shells                  ...   72
 # of contracted basis functions         ...  144
 Highest angular momentum                ...    2
 Maximum contraction depth               ...    5
Auxiliary gaussian basis set:
 # of primitive gaussian shells          ...  240
 # of primitive gaussian functions       ...  612
 # of contracted shells                  ...  150
 # of contracted aux-basis functions     ...  426
 Highest angular momentum                ...    4
 Maximum contraction depth               ...    7
Ratio of auxiliary to basis functions    ...  2.96
Integral package used                  ... LIBINT
 One Electron integrals                  ... done
 Ordering auxiliary basis shells         ... done
 Integral threshhold             Thresh  ...  2.500e-11
 Primitive cut-off               TCut    ...  2.500e-12
 Pre-screening matrix                    ... done
 Shell pair data                         ... 
 Ordering of the shell pairs             ... done (   0.001 sec) 2610 of 2628 pairs
 Determination of significant pairs      ... done (   0.000 sec)
 Creation of shell pair data             ... done (   0.001 sec)
 Storage of shell pair data              ... done (   0.036 sec)
 Shell pair data done in (   0.037 sec)
 Computing two index integrals           ... done
 Cholesky decomposition of the V-matrix  ... done


Timings:
 Total evaluation time                   ...   0.292 sec (  0.005 min)
 One electron matrix time                ...   0.042 sec (  0.001 min) = 14.4%
 Schwartz matrix evaluation time         ...   0.151 sec (  0.003 min) = 51.6%
 Two index repulsion integral time       ...   0.018 sec (  0.000 min) =  6.1%
 Cholesky decomposition of V             ...   0.023 sec (  0.000 min) =  7.7%
 Three index repulsion integral time     ...   0.000 sec (  0.000 min) =  0.1%



           ************************************************************
           *        Program running with 12 parallel MPI-processes    *
           *              working on a common directory               *
           ************************************************************
-------------------------------------------------------------------------------
                                 ORCA SCF
-------------------------------------------------------------------------------

------------
SCF SETTINGS
------------
Hamiltonian:
 Density Functional     Method          .... DFT(GTOs)
 Exchange Functional    Exchange        .... PBE
   PBE kappa parameter   XKappa         ....  1.245000
   PBE mue parameter    XMuePBE         ....  0.219520
 Correlation Functional Correlation     .... PBE
   PBE beta parameter  CBetaPBE         ....  0.066725
 LDA part of GGA corr.  LDAOpt          .... PW91-LDA
 Gradients option       PostSCFGGA      .... off
   Density functional embedding theory  .... OFF
   NL short-range parameter             ....  3.700000
 RI-approximation to the Coulomb term is turned on
   Number of auxiliary basis functions  .... 426


General Settings:
 Integral files         IntName         .... cyclohexane-boat
 Hartree-Fock type      HFTyp           .... RHF
 Total Charge           Charge          ....    0
 Multiplicity           Mult            ....    1
 Number of Electrons    NEL             ....   48
 Basis Dimension        Dim             ....  144
 Nuclear Repulsion      ENuc            ....    258.1136338521 Eh

Convergence Acceleration:
 DIIS                   CNVDIIS         .... on
   Start iteration      DIISMaxIt       ....    12
   Startup error        DIISStart       ....  0.200000
   # of expansion vecs  DIISMaxEq       ....     5
   Bias factor          DIISBfac        ....   1.050
   Max. coefficient     DIISMaxC        ....  10.000
 Newton-Raphson         CNVNR           .... off
 SOSCF                  CNVSOSCF        .... on
   Start iteration      SOSCFMaxIt      ....   150
   Startup grad/error   SOSCFStart      ....  0.003300
 Level Shifting         CNVShift        .... on
   Level shift para.    LevelShift      ....    0.2500
   Turn off err/grad.   ShiftErr        ....    0.0010
 Zerner damping         CNVZerner       .... off
 Static damping         CNVDamp         .... on
   Fraction old density DampFac         ....    0.7000
   Max. Damping (<1)    DampMax         ....    0.9800
   Min. Damping (>=0)   DampMin         ....    0.0000
   Turn off err/grad.   DampErr         ....    0.1000
 Fernandez-Rico         CNVRico         .... off

SCF Procedure:
 Maximum # iterations   MaxIter         ....   125
 SCF integral mode      SCFMode         .... Direct
   Integral package                     .... LIBINT
 Reset frequency        DirectResetFreq ....    20
 Integral Threshold     Thresh          ....  2.500e-11 Eh
 Primitive CutOff       TCut            ....  2.500e-12 Eh

Convergence Tolerance:
 Convergence Check Mode ConvCheckMode   .... Total+1el-Energy
 Convergence forced     ConvForced      .... 0
 Energy Change          TolE            ....  1.000e-08 Eh
 1-El. energy change                    ....  1.000e-05 Eh
 Orbital Gradient       TolG            ....  1.000e-05
 Orbital Rotation angle TolX            ....  1.000e-05
 DIIS Error             TolErr          ....  5.000e-07


Diagonalization of the overlap matrix:
Smallest eigenvalue                        ... 7.019e-04
Time for diagonalization                   ...    0.005 sec
Threshold for overlap eigenvalues          ... 1.000e-08
Number of eigenvalues below threshold      ... 0
Time for construction of square roots      ...    0.023 sec
Total time needed                          ...    0.028 sec

-------------------
DFT GRID GENERATION
-------------------

General Integration Accuracy     IntAcc      ...  4.670
Radial Grid Type                 RadialGrid  ... Gauss-Chebyshev
Angular Grid (max. acc.)         AngularGrid ... Lebedev-302
Angular grid pruning method      GridPruning ... 3 (G Style)
Weight generation scheme         WeightScheme... Becke
Basis function cutoff            BFCut       ...    1.0000e-11
Integration weight cutoff        WCut        ...    1.0000e-14
Grids for H and He will be reduced by one unit

# of grid points (after initial pruning)     ...  78000 (   0.0 sec)
# of grid points (after weights+screening)   ...  69980 (   0.1 sec)
nearest neighbour list constructed           ...    0.0 sec
Grid point re-assignment to atoms done       ...    0.0 sec
Grid point division into batches done        ...    0.3 sec
Reduced shell lists constructed in    0.3 sec

Total number of grid points                  ...    69980
Total number of batches                      ...     1098
Average number of points per batch           ...       63
Average number of grid points per atom       ...     3888
Average number of shells per batch           ...    65.77 (91.35%)
Average number of basis functions per batch  ...   133.09 (92.42%)
Average number of large shells per batch     ...    55.42 (84.26%)
Average number of large basis fcns per batch ...   108.90 (81.83%)
Maximum spatial batch extension              ...   2.18,  1.98,  1.57 au
Average spatial batch extension              ...   0.08,  0.08,  0.08 au

Time for grid setup =    0.521 sec

------------------------------
INITIAL GUESS: MODEL POTENTIAL
------------------------------
Loading Hartree-Fock densities                     ... done
Calculating cut-offs                               ... done
Setting up the integral package                    ... done
Initializing the effective Hamiltonian             ... done
Starting the Coulomb interaction                   ... done (   0.0 sec)
Reading the grid                                   ... done
Mapping shells                                     ... done
Starting the XC term evaluation                    ... done (   0.2 sec)
  promolecular density results
     # of electrons  =     47.994219368
     EX              =    -34.571905262
     EC              =     -1.578878582
     EX+EC           =    -36.150783844
Transforming the Hamiltonian                       ... done (   0.0 sec)
Diagonalizing the Hamiltonian                      ... done (   0.0 sec)
Back transforming the eigenvectors                 ... done (   0.0 sec)
Now organizing SCF variables                       ... done
                      ------------------
                      INITIAL GUESS DONE (   0.9 sec)
                      ------------------
----------------------
INITIAL GUESS ORBITALS
----------------------
                      0         1         2         3         4         5   
                 -10.09503 -10.09501 -10.09501 -10.09498 -10.07698 -10.07690
                   2.00000   2.00000   2.00000   2.00000   2.00000   2.00000
                  --------  --------  --------  --------  --------  --------
  0C   1s         0.000000  0.000242  0.000000 -0.000282 -0.698226 -0.698470
  0C   2s        -0.000000  0.000421 -0.000000 -0.001866 -0.041577 -0.036565
  0C   3s         0.000000 -0.011605  0.000000  0.009942  0.065948  0.036521
  0C   1pz       -0.000000  0.000473 -0.000000 -0.000474  0.000887  0.000750
  0C   1px        0.000000 -0.000282  0.000000  0.000681  0.000128 -0.000715
  0C   1py       -0.000907 -0.000000  0.001310  0.000000 -0.000000 -0.000000
  0C   2pz        0.000000 -0.001294  0.000000 -0.000058  0.003217  0.002220
  0C   2px       -0.000000 -0.000809  0.000000 -0.002746 -0.015240 -0.001580
  0C   2py        0.006701  0.000000 -0.003412 -0.000000 -0.000000 -0.000000
  0C   1dz2       0.000000 -0.000475  0.000000  0.000317 -0.000335 -0.000359
  0C   1dxz       0.000000 -0.000417  0.000000  0.000393 -0.000376 -0.000301
  0C   1dyz      -0.000696 -0.000000  0.000736  0.000000 -0.000000 -0.000000
  0C   1dx2y2     0.000000 -0.000634  0.000000  0.000899 -0.000816 -0.000744
  0C   1dxy       0.000775  0.000000 -0.000756 -0.000000  0.000000  0.000000
  1C   1s         0.493520 -0.493589 -0.493948  0.494032 -0.000601 -0.000699
  1C   2s         0.030509 -0.028387 -0.027198  0.025374  0.001629  0.001506
  1C   3s        -0.052195  0.035199  0.022610 -0.019301 -0.031166 -0.009418
  1C   1pz        0.000563 -0.000379 -0.000556  0.000364 -0.000234 -0.000414
  1C   1px       -0.000214  0.000360 -0.001226  0.001370  0.000614  0.000567
  1C   1py        0.000736 -0.000920 -0.000626  0.000929 -0.000560 -0.000861
  1C   2pz       -0.000835 -0.001351  0.001594  0.001265  0.004197  0.001272
  1C   2px        0.007425 -0.003126  0.000653 -0.000706  0.001867 -0.001341
  1C   2py        0.006817 -0.000669 -0.003019 -0.000017  0.008241  0.002544
  1C   1dz2       0.000036 -0.000018 -0.000738  0.000660 -0.000374 -0.000205
  1C   1dxz       0.000167 -0.000132 -0.000048  0.000221 -0.000314 -0.000357
  1C   1dyz      -0.000279  0.000332  0.000289 -0.000336  0.000522  0.000531
  1C   1dx2y2     0.000437 -0.000301  0.000820 -0.000952 -0.000304 -0.000362
  1C   1dxy       0.000149 -0.000301 -0.000434  0.000357 -0.000643 -0.000797
  2C   1s         0.493520  0.493590  0.493948  0.494032  0.000601 -0.000699
  2C   2s         0.030509  0.028387  0.027198  0.025374 -0.001629  0.001506
  2C   3s        -0.052195 -0.035199 -0.022610 -0.019301  0.031166 -0.009418
  2C   1pz        0.000563  0.000379  0.000556  0.000364  0.000234 -0.000414
  2C   1px        0.000214  0.000360 -0.001226 -0.001370  0.000614 -0.000567
  2C   1py       -0.000736 -0.000920 -0.000626 -0.000929 -0.000560  0.000861
  2C   2pz       -0.000835  0.001351 -0.001594  0.001265 -0.004197  0.001272
  2C   2px       -0.007425 -0.003126  0.000653  0.000706  0.001867  0.001341
  2C   2py       -0.006817 -0.000669 -0.003019  0.000017  0.008241 -0.002544
  2C   1dz2       0.000036  0.000018  0.000738  0.000660  0.000374 -0.000205
  2C   1dxz      -0.000167 -0.000132 -0.000048 -0.000221 -0.000314  0.000357
  2C   1dyz       0.000279  0.000332  0.000289  0.000336  0.000522 -0.000531
  2C   1dx2y2     0.000437  0.000301 -0.000820 -0.000952  0.000304 -0.000362
  2C   1dxy       0.000149  0.000301  0.000434  0.000357  0.000643 -0.000797
  3C   1s        -0.000000 -0.000242 -0.000000 -0.000282  0.698226 -0.698470
  3C   2s         0.000000 -0.000421 -0.000000 -0.001866  0.041577 -0.036565
  3C   3s        -0.000000  0.011605  0.000000  0.009942 -0.065948  0.036521
  3C   1pz        0.000000 -0.000473  0.000000 -0.000474 -0.000887  0.000750
  3C   1px        0.000000 -0.000282 -0.000000 -0.000681  0.000128  0.000715
  3C   1py        0.000907  0.000000  0.001310 -0.000000  0.000000  0.000000
  3C   2pz       -0.000000  0.001294 -0.000000 -0.000058 -0.003217  0.002220
  3C   2px        0.000000 -0.000809  0.000000  0.002746 -0.015240  0.001580
  3C   2py       -0.006701 -0.000000 -0.003412  0.000000  0.000000  0.000000
  3C   1dz2      -0.000000  0.000475 -0.000000  0.000317  0.000335 -0.000359
  3C   1dxz       0.000000 -0.000417  0.000000 -0.000393 -0.000376  0.000301
  3C   1dyz       0.000696  0.000000  0.000736 -0.000000  0.000000  0.000000
  3C   1dx2y2    -0.000000  0.000634 -0.000000  0.000899  0.000816 -0.000744
  3C   1dxy       0.000775  0.000000  0.000756 -0.000000  0.000000  0.000000
  4C   1s        -0.493520  0.493589 -0.493948  0.494032  0.000601 -0.000699
  4C   2s        -0.030509  0.028387 -0.027198  0.025374 -0.001629  0.001506
  4C   3s         0.052195 -0.035199  0.022610 -0.019301  0.031166 -0.009418
  4C   1pz       -0.000563  0.000379 -0.000556  0.000364  0.000234 -0.000414
  4C   1px       -0.000214  0.000360  0.001226 -0.001370  0.000614 -0.000567
  4C   1py       -0.000736  0.000920 -0.000626  0.000929  0.000560 -0.000861
  4C   2pz        0.000835  0.001351  0.001594  0.001265 -0.004197  0.001272
  4C   2px        0.007425 -0.003126 -0.000653  0.000706  0.001867  0.001341
  4C   2py       -0.006817  0.000669 -0.003019 -0.000017 -0.008241  0.002544
  4C   1dz2      -0.000036  0.000018 -0.000738  0.000660  0.000374 -0.000205
  4C   1dxz       0.000167 -0.000132  0.000048 -0.000221 -0.000314  0.000357
  4C   1dyz       0.000279 -0.000332  0.000289 -0.000336 -0.000522  0.000531
  4C   1dx2y2    -0.000437  0.000301  0.000820 -0.000952  0.000304 -0.000362
  4C   1dxy       0.000149 -0.000301  0.000434 -0.000357 -0.000643  0.000797
  5H   1s         0.000000 -0.000540  0.000000  0.000229 -0.002750  0.002064
  5H   2s         0.000000 -0.001865  0.000000 -0.000122  0.004316 -0.006363
  5H   1pz       -0.000000  0.000235 -0.000000  0.000211  0.000854 -0.000611
  5H   1px       -0.000000  0.000030  0.000000  0.000031 -0.002074  0.001918
  5H   1py       -0.000150 -0.000000 -0.000263  0.000000 -0.000000 -0.000000
  6H   1s        -0.000000  0.000250 -0.000000 -0.000480 -0.000039  0.002248
  6H   2s        -0.000000  0.000279  0.000000 -0.000125  0.009435 -0.005693
  6H   1pz       -0.000000  0.000238  0.000000  0.000282 -0.001846  0.001958
  6H   1px       -0.000000  0.000541 -0.000000  0.000180  0.001142 -0.000468
  6H   1py       -0.000514 -0.000000 -0.000402  0.000000 -0.000000 -0.000000
  7C   1s        -0.493520 -0.493590  0.493948  0.494032 -0.000601 -0.000699
  7C   2s        -0.030509 -0.028387  0.027198  0.025374  0.001629  0.001506
  7C   3s         0.052195  0.035199 -0.022610 -0.019301 -0.031166 -0.009418
  7C   1pz       -0.000563 -0.000379  0.000556  0.000364 -0.000234 -0.000414
  7C   1px        0.000214  0.000360  0.001226  0.001370  0.000614  0.000567
  7C   1py        0.000736  0.000920 -0.000626 -0.000929  0.000560  0.000861
  7C   2pz        0.000835 -0.001351 -0.001594  0.001265  0.004197  0.001272
  7C   2px       -0.007425 -0.003126 -0.000653 -0.000706  0.001867 -0.001341
  7C   2py        0.006817  0.000669 -0.003019  0.000017 -0.008241 -0.002544
  7C   1dz2      -0.000036 -0.000018  0.000738  0.000660 -0.000374 -0.000205
  7C   1dxz      -0.000167 -0.000132  0.000048  0.000221 -0.000314 -0.000357
  7C   1dyz      -0.000279 -0.000332  0.000289  0.000336 -0.000522 -0.000531
  7C   1dx2y2    -0.000437 -0.000301 -0.000820 -0.000952 -0.000304 -0.000362
  7C   1dxy       0.000149  0.000301 -0.000434 -0.000357  0.000643  0.000797
  8H   1s        -0.002022 -0.001786 -0.002509 -0.001842 -0.000586  0.000244
  8H   2s         0.004656  0.005901  0.003505  0.005084 -0.001514  0.000806
  8H   1pz       -0.001013 -0.000944 -0.000863 -0.000869  0.000045  0.000066
  8H   1px       -0.000503 -0.000613 -0.000214 -0.000038 -0.000084  0.000149
  8H   1py       -0.001079 -0.001105 -0.001127 -0.001060  0.000107 -0.000107
  9H   1s        -0.000843 -0.002054 -0.001199 -0.002292 -0.000489  0.000092
  9H   2s         0.007430  0.005355  0.006237  0.004154 -0.000021  0.000061
  9H   1pz        0.001531  0.001367  0.001341  0.001275 -0.000250  0.000188
  9H   1px       -0.000575 -0.000568  0.000083 -0.000175 -0.000159  0.000200
  9H   1py        0.000339  0.000005  0.000270 -0.000075  0.000258 -0.000335
 10H   1s        -0.000000 -0.000250  0.000000 -0.000480  0.000039  0.002248
 10H   2s        -0.000000 -0.000279 -0.000000 -0.000125 -0.009435 -0.005693
 10H   1pz        0.000000 -0.000238  0.000000  0.000282  0.001846  0.001958
 10H   1px       -0.000000  0.000541 -0.000000 -0.000180  0.001142  0.000468
 10H   1py        0.000514  0.000000 -0.000402 -0.000000  0.000000 -0.000000
 11H   1s        -0.000000  0.000540 -0.000000  0.000229  0.002750  0.002064
 11H   2s        -0.000000  0.001865 -0.000000 -0.000122 -0.004316 -0.006363
 11H   1pz        0.000000 -0.000235  0.000000  0.000211 -0.000854 -0.000611
 11H   1px       -0.000000  0.000030 -0.000000 -0.000031 -0.002074 -0.001918
 11H   1py        0.000150  0.000000 -0.000263 -0.000000  0.000000  0.000000
 12H   1s         0.002022  0.001786 -0.002509 -0.001842  0.000586  0.000244
 12H   2s        -0.004656 -0.005901  0.003505  0.005084  0.001514  0.000806
 12H   1pz        0.001013  0.000944 -0.000863 -0.000869 -0.000045  0.000066
 12H   1px       -0.000503 -0.000613  0.000214  0.000038 -0.000084 -0.000149
 12H   1py        0.001079  0.001105 -0.001127 -0.001060 -0.000107 -0.000107
 13H   1s         0.000843  0.002054 -0.001199 -0.002292  0.000489  0.000092
 13H   2s        -0.007430 -0.005355  0.006237  0.004154  0.000021  0.000061
 13H   1pz       -0.001531 -0.001367  0.001341  0.001275  0.000250  0.000188
 13H   1px       -0.000575 -0.000568 -0.000083  0.000175 -0.000159 -0.000200
 13H   1py       -0.000339 -0.000005  0.000270 -0.000075 -0.000258 -0.000335
 14H   1s        -0.000843  0.002054  0.001199 -0.002292  0.000489  0.000092
 14H   2s         0.007430 -0.005355 -0.006237  0.004154  0.000021  0.000061
 14H   1pz        0.001531 -0.001367 -0.001341  0.001275  0.000250  0.000188
 14H   1px        0.000575 -0.000568  0.000083  0.000175 -0.000159 -0.000200
 14H   1py       -0.000339  0.000005  0.000270  0.000075  0.000258  0.000335
 15H   1s        -0.002022  0.001786  0.002509 -0.001842  0.000586  0.000244
 15H   2s         0.004656 -0.005901 -0.003505  0.005084  0.001514  0.000806
 15H   1pz       -0.001013  0.000944  0.000863 -0.000869 -0.000045  0.000066
 15H   1px        0.000503 -0.000613 -0.000214  0.000038 -0.000084 -0.000149
 15H   1py        0.001079 -0.001105 -0.001127  0.001060  0.000107  0.000107
 16H   1s         0.000843 -0.002054  0.001199 -0.002292 -0.000489  0.000092
 16H   2s        -0.007430  0.005355 -0.006237  0.004154 -0.000021  0.000061
 16H   1pz       -0.001531  0.001367 -0.001341  0.001275 -0.000250  0.000188
 16H   1px        0.000575 -0.000568 -0.000083 -0.000175 -0.000159  0.000200
 16H   1py        0.000339 -0.000005  0.000270  0.000075 -0.000258  0.000335
 17H   1s         0.002022 -0.001786  0.002509 -0.001842 -0.000586  0.000244
 17H   2s        -0.004656  0.005901 -0.003505  0.005084 -0.001514  0.000806
 17H   1pz        0.001013 -0.000944  0.000863 -0.000869  0.000045  0.000066
 17H   1px        0.000503 -0.000613  0.000214 -0.000038 -0.000084  0.000149
 17H   1py       -0.001079  0.001105 -0.001127  0.001060 -0.000107  0.000107
                      6         7         8         9        10        11   
                  -0.90913  -0.84121  -0.81714  -0.71219  -0.70992  -0.61929
                   2.00000   2.00000   2.00000   2.00000   2.00000   2.00000
                  --------  --------  --------  --------  --------  --------
  0C   1s         0.103619 -0.000000 -0.152633 -0.000000 -0.144649 -0.107000
  0C   2s        -0.205076  0.000000  0.322238  0.000000  0.315204  0.263634
  0C   3s        -0.067244 -0.000000  0.028304 -0.000000  0.028840 -0.171378
  0C   1pz       -0.025247  0.000000  0.024436 -0.000000 -0.036288 -0.108021
  0C   1px        0.040702 -0.000000 -0.011890 -0.000000  0.025273  0.046492
  0C   1py        0.000000  0.080678 -0.000000 -0.140659  0.000000  0.000000
  0C   2pz       -0.013026 -0.000000  0.009481  0.000000 -0.017953 -0.060076
  0C   2px        0.016829  0.000000  0.004072  0.000000 -0.005348  0.085984
  0C   2py        0.000000  0.045089  0.000000 -0.069287 -0.000000  0.000000
  0C   1dz2       0.003210  0.000000 -0.001765 -0.000000  0.000435  0.002027
  0C   1dxz       0.003156  0.000000 -0.002140  0.000000  0.000977  0.002244
  0C   1dyz       0.000000  0.005296 -0.000000 -0.007546  0.000000  0.000000
  0C   1dx2y2     0.003494  0.000000 -0.006036  0.000000  0.001426  0.007438
  0C   1dxy      -0.000000 -0.006365 -0.000000  0.005033  0.000000 -0.000000
  1C   1s         0.120749 -0.140142 -0.088363  0.123078  0.061519  0.081480
  1C   2s        -0.240610  0.289961  0.183748 -0.276725 -0.133577 -0.192398
  1C   3s        -0.025905  0.021972  0.017213  0.088619  0.002938  0.190822
  1C   1pz        0.007226  0.004070 -0.013535 -0.001670 -0.063068 -0.069535
  1C   1px        0.029055 -0.048459  0.070446 -0.100664  0.084179 -0.058680
  1C   1py        0.027390  0.024957 -0.038151 -0.022884 -0.108748 -0.085793
  1C   2pz        0.001984  0.000725 -0.015710  0.004451 -0.021263 -0.047681
  1C   2px        0.013696 -0.024628  0.032060 -0.055672  0.037609 -0.043384
  1C   2py        0.008440  0.007321 -0.031694 -0.010656 -0.029822 -0.061860
  1C   1dz2       0.004506 -0.003155 -0.000081 -0.003146  0.000134 -0.003686
  1C   1dxz       0.001122 -0.000910 -0.001690  0.000307 -0.000601 -0.005137
  1C   1dyz      -0.002400  0.000673  0.002826 -0.000624  0.004093  0.004306
  1C   1dx2y2    -0.002402  0.006133 -0.005146  0.004334 -0.004695  0.003647
  1C   1dxy       0.002291 -0.002268 -0.004345 -0.000500 -0.001023 -0.006361
  2C   1s         0.120749  0.140142  0.088363  0.123078  0.061519 -0.081480
  2C   2s        -0.240610 -0.289961 -0.183748 -0.276725 -0.133577  0.192398
  2C   3s        -0.025905 -0.021972 -0.017213  0.088619  0.002938 -0.190822
  2C   1pz        0.007226 -0.004070  0.013535 -0.001670 -0.063068  0.069535
  2C   1px       -0.029055 -0.048459  0.070446  0.100664 -0.084179 -0.058680
  2C   1py       -0.027390  0.024957 -0.038151  0.022884  0.108748 -0.085793
  2C   2pz        0.001984 -0.000725  0.015710  0.004451 -0.021263  0.047681
  2C   2px       -0.013696 -0.024628  0.032060  0.055672 -0.037609 -0.043384
  2C   2py       -0.008440  0.007321 -0.031694  0.010656  0.029822 -0.061860
  2C   1dz2       0.004506  0.003155  0.000081 -0.003146  0.000134  0.003686
  2C   1dxz      -0.001122 -0.000910 -0.001690 -0.000307  0.000601 -0.005137
  2C   1dyz       0.002400  0.000673  0.002826  0.000624 -0.004093  0.004306
  2C   1dx2y2    -0.002402 -0.006133  0.005146  0.004334 -0.004695 -0.003647
  2C   1dxy       0.002291  0.002268  0.004345 -0.000500 -0.001023  0.006361
  3C   1s         0.103619  0.000000  0.152633 -0.000000 -0.144649  0.107000
  3C   2s        -0.205076 -0.000000 -0.322238  0.000000  0.315204 -0.263634
  3C   3s        -0.067244  0.000000 -0.028304  0.000000  0.028840  0.171378
  3C   1pz       -0.025247 -0.000000 -0.024436  0.000000 -0.036288  0.108021
  3C   1px       -0.040702  0.000000 -0.011890 -0.000000 -0.025273  0.046492
  3C   1py       -0.000000  0.080678 -0.000000  0.140659 -0.000000 -0.000000
  3C   2pz       -0.013026  0.000000 -0.009481 -0.000000 -0.017953  0.060076
  3C   2px       -0.016829  0.000000  0.004072  0.000000  0.005348  0.085984
  3C   2py        0.000000  0.045089 -0.000000  0.069287 -0.000000 -0.000000
  3C   1dz2       0.003210 -0.000000  0.001765  0.000000  0.000435 -0.002027
  3C   1dxz      -0.003156  0.000000 -0.002140  0.000000 -0.000977  0.002244
  3C   1dyz      -0.000000  0.005296 -0.000000  0.007546 -0.000000 -0.000000
  3C   1dx2y2     0.003494 -0.000000  0.006036  0.000000  0.001426 -0.007438
  3C   1dxy      -0.000000  0.006365 -0.000000  0.005033  0.000000 -0.000000
  4C   1s         0.120749 -0.140142  0.088363 -0.123078  0.061519 -0.081480
  4C   2s        -0.240610  0.289961 -0.183748  0.276725 -0.133577  0.192398
  4C   3s        -0.025905  0.021972 -0.017213 -0.088619  0.002938 -0.190822
  4C   1pz        0.007226  0.004070  0.013535  0.001670 -0.063068  0.069535
  4C   1px       -0.029055  0.048459  0.070446 -0.100664 -0.084179 -0.058680
  4C   1py        0.027390  0.024957  0.038151  0.022884 -0.108748  0.085793
  4C   2pz        0.001984  0.000725  0.015710 -0.004451 -0.021263  0.047681
  4C   2px       -0.013696  0.024628  0.032060 -0.055672 -0.037609 -0.043384
  4C   2py        0.008440  0.007321  0.031694  0.010656 -0.029822  0.061860
  4C   1dz2       0.004506 -0.003155  0.000081  0.003146  0.000134  0.003686
  4C   1dxz      -0.001122  0.000910 -0.001690  0.000307  0.000601 -0.005137
  4C   1dyz      -0.002400  0.000673 -0.002826  0.000624  0.004093 -0.004306
  4C   1dx2y2    -0.002402  0.006133  0.005146 -0.004334 -0.004695 -0.003647
  4C   1dxy      -0.002291  0.002268 -0.004345 -0.000500  0.001023 -0.006361
  5H   1s        -0.039277 -0.000000 -0.085570  0.000000  0.112873 -0.105433
  5H   2s        -0.005867 -0.000000 -0.004926  0.000000  0.019829 -0.020978
  5H   1pz        0.001120 -0.000000  0.002193  0.000000 -0.003862  0.004005
  5H   1px       -0.007249 -0.000000 -0.011587  0.000000  0.011471 -0.008839
  5H   1py       -0.000000  0.001276  0.000000  0.002036 -0.000000  0.000000
  6H   1s        -0.046520 -0.000000 -0.082593  0.000000  0.119849 -0.153959
  6H   2s         0.002087 -0.000000 -0.012888 -0.000000  0.012203 -0.032732
  6H   1pz       -0.007263 -0.000000 -0.011477  0.000000  0.012484 -0.012687
  6H   1px        0.000767 -0.000000  0.001495 -0.000000 -0.003117  0.001807
  6H   1py       -0.000000  0.000968  0.000000  0.002623  0.000000  0.000000
  7C   1s         0.120749  0.140142 -0.088363 -0.123078  0.061519  0.081480
  7C   2s        -0.240610 -0.289961  0.183748  0.276725 -0.133577 -0.192398
  7C   3s        -0.025905 -0.021972  0.017213 -0.088619  0.002938  0.190822
  7C   1pz        0.007226 -0.004070 -0.013535  0.001670 -0.063068 -0.069535
  7C   1px        0.029055  0.048459  0.070446  0.100664  0.084179 -0.058680
  7C   1py       -0.027390  0.024957  0.038151 -0.022884  0.108748  0.085793
  7C   2pz        0.001984 -0.000725 -0.015710 -0.004451 -0.021263 -0.047681
  7C   2px        0.013696  0.024628  0.032060  0.055672  0.037609 -0.043384
  7C   2py       -0.008440  0.007321  0.031694 -0.010656  0.029822  0.061860
  7C   1dz2       0.004506  0.003155 -0.000081  0.003146  0.000134 -0.003686
  7C   1dxz       0.001122  0.000910 -0.001690 -0.000307 -0.000601 -0.005137
  7C   1dyz       0.002400  0.000673 -0.002826 -0.000624 -0.004093 -0.004306
  7C   1dx2y2    -0.002402 -0.006133 -0.005146 -0.004334 -0.004695  0.003647
  7C   1dxy      -0.002291 -0.002268  0.004345 -0.000500  0.001023  0.006361
  8H   1s        -0.062141 -0.094040 -0.059222 -0.125177 -0.066845  0.112250
  8H   2s        -0.009700 -0.008765 -0.011580 -0.020027 -0.013146  0.038964
  8H   1pz       -0.005286 -0.007310 -0.004719 -0.007906 -0.005546  0.007175
  8H   1px       -0.003605 -0.005421 -0.001055 -0.001698 -0.004340  0.001555
  8H   1py       -0.008718 -0.010072 -0.007112 -0.010471 -0.003685  0.006930
  9H   1s        -0.065222 -0.089047 -0.063450 -0.120171 -0.073748  0.136609
  9H   2s        -0.004767 -0.013179 -0.009426 -0.029956 -0.009481  0.028175
  9H   1pz        0.009969  0.012233  0.008432  0.012938  0.006896 -0.011166
  9H   1px       -0.003863 -0.005123 -0.001109 -0.001874 -0.004732  0.002308
  9H   1py       -0.001169 -0.000808 -0.000961 -0.000656  0.001738 -0.000571
 10H   1s        -0.046520  0.000000  0.082593  0.000000  0.119849  0.153959
 10H   2s         0.002087  0.000000  0.012888  0.000000  0.012203  0.032732
 10H   1pz       -0.007263  0.000000  0.011477  0.000000  0.012484  0.012687
 10H   1px       -0.000767 -0.000000  0.001495 -0.000000  0.003117  0.001807
 10H   1py        0.000000  0.000968  0.000000 -0.002623  0.000000 -0.000000
 11H   1s        -0.039277  0.000000  0.085570  0.000000  0.112873  0.105433
 11H   2s        -0.005867  0.000000  0.004926 -0.000000  0.019829  0.020978
 11H   1pz        0.001120  0.000000 -0.002193  0.000000 -0.003862 -0.004005
 11H   1px        0.007249 -0.000000 -0.011587  0.000000 -0.011471 -0.008839
 11H   1py        0.000000  0.001276 -0.000000 -0.002036  0.000000 -0.000000
 12H   1s        -0.062141 -0.094040  0.059222  0.125177 -0.066845 -0.112250
 12H   2s        -0.009700 -0.008765  0.011580  0.020027 -0.013146 -0.038964
 12H   1pz       -0.005286 -0.007310  0.004719  0.007906 -0.005546 -0.007175
 12H   1px        0.003605  0.005421 -0.001055 -0.001698  0.004340  0.001555
 12H   1py       -0.008718 -0.010072  0.007112  0.010471 -0.003685 -0.006930
 13H   1s        -0.065222 -0.089047  0.063450  0.120171 -0.073748 -0.136609
 13H   2s        -0.004767 -0.013179  0.009426  0.029956 -0.009481 -0.028175
 13H   1pz        0.009969  0.012233 -0.008432 -0.012938  0.006896  0.011166
 13H   1px        0.003863  0.005123 -0.001109 -0.001874  0.004732  0.002308
 13H   1py       -0.001169 -0.000808  0.000961  0.000656  0.001738  0.000571
 14H   1s        -0.065222  0.089047  0.063450 -0.120171 -0.073748 -0.136609
 14H   2s        -0.004767  0.013179  0.009426 -0.029956 -0.009481 -0.028175
 14H   1pz        0.009969 -0.012233 -0.008432  0.012938  0.006896  0.011166
 14H   1px        0.003863 -0.005123 -0.001109  0.001874  0.004732  0.002308
 14H   1py        0.001169 -0.000808 -0.000961  0.000656 -0.001738 -0.000571
 15H   1s        -0.062141  0.094040  0.059222 -0.125177 -0.066845 -0.112250
 15H   2s        -0.009700  0.008765  0.011580 -0.020027 -0.013146 -0.038964
 15H   1pz       -0.005286  0.007310  0.004719 -0.007906 -0.005546 -0.007175
 15H   1px        0.003605 -0.005421 -0.001055  0.001698  0.004340  0.001555
 15H   1py        0.008718 -0.010072 -0.007112  0.010471  0.003685  0.006930
 16H   1s        -0.065222  0.089047 -0.063450  0.120171 -0.073748  0.136609
 16H   2s        -0.004767  0.013179 -0.009426  0.029956 -0.009481  0.028175
 16H   1pz        0.009969 -0.012233  0.008432 -0.012938  0.006896 -0.011166
 16H   1px       -0.003863  0.005123 -0.001109  0.001874 -0.004732  0.002308
 16H   1py        0.001169 -0.000808  0.000961 -0.000656 -0.001738  0.000571
 17H   1s        -0.062141  0.094040 -0.059222  0.125177 -0.066845  0.112250
 17H   2s        -0.009700  0.008765 -0.011580  0.020027 -0.013146  0.038964
 17H   1pz       -0.005286  0.007310 -0.004719  0.007906 -0.005546  0.007175
 17H   1px       -0.003605  0.005421 -0.001055  0.001698 -0.004340  0.001555
 17H   1py        0.008718 -0.010072  0.007112 -0.010471  0.003685 -0.006930
                     12        13        14        15        16        17   
                  -0.58865  -0.57509  -0.54981  -0.50606  -0.50473  -0.48641
                   2.00000   2.00000   2.00000   2.00000   2.00000   2.00000
                  --------  --------  --------  --------  --------  --------
  0C   1s        -0.000771 -0.022015 -0.000000 -0.021410  0.000000 -0.000000
  0C   2s         0.003092  0.052778  0.000000  0.047889 -0.000000  0.000000
  0C   3s        -0.008541  0.011839 -0.000000  0.058846  0.000000 -0.000000
  0C   1pz        0.154905  0.032463  0.000000  0.230878 -0.000000  0.000000
  0C   1px       -0.026551  0.212575 -0.000000  0.025682  0.000000  0.000000
  0C   1py       -0.000000  0.000000 -0.124968 -0.000000 -0.233408  0.120543
  0C   2pz        0.054146  0.021514 -0.000000  0.124204  0.000000 -0.000000
  0C   2px       -0.005786  0.094324  0.000000 -0.003895 -0.000000  0.000000
  0C   2py       -0.000000  0.000000 -0.040299 -0.000000 -0.082241  0.001657
  0C   1dz2       0.003330  0.001127  0.000000  0.000683 -0.000000  0.000000
  0C   1dxz      -0.005770  0.003685  0.000000 -0.004354 -0.000000  0.000000
  0C   1dyz      -0.000000  0.000000  0.006240 -0.000000 -0.010564  0.001519
  0C   1dx2y2     0.004423 -0.004475  0.000000  0.006370 -0.000000  0.000000
  0C   1dxy       0.000000 -0.000000  0.004340  0.000000 -0.000115 -0.012373
  1C   1s         0.004655  0.004039 -0.001689  0.016530  0.004162 -0.027229
  1C   2s        -0.010934 -0.012920  0.005552 -0.038262 -0.009124  0.071955
  1C   3s        -0.004727  0.013162 -0.000837 -0.025528 -0.009471  0.058303
  1C   1pz        0.164536  0.086652  0.248066  0.123677 -0.032995 -0.036264
  1C   1px        0.012965  0.163468 -0.045849 -0.002898 -0.251651 -0.184124
  1C   1py       -0.154245  0.112458 -0.015444 -0.159975  0.140014 -0.225495
  1C   2pz        0.060521  0.024066  0.084982  0.044853 -0.012741 -0.024714
  1C   2px        0.002268  0.053456 -0.013077 -0.014917 -0.088732 -0.049831
  1C   2py       -0.054894  0.036495  0.000535 -0.034628  0.048635 -0.092912
  1C   1dz2       0.001377  0.003339  0.005329 -0.002397 -0.005473 -0.001942
  1C   1dxz      -0.000832 -0.002295 -0.002263  0.007980  0.001574 -0.000842
  1C   1dyz       0.002406 -0.002469  0.003824  0.001373 -0.004935  0.005539
  1C   1dx2y2     0.000207  0.000852  0.003751  0.002892  0.001399  0.008713
  1C   1dxy       0.001545 -0.005642  0.001123 -0.010616 -0.001238  0.000567
  2C   1s         0.004655  0.004039  0.001689 -0.016530 -0.004162  0.027229
  2C   2s        -0.010934 -0.012920 -0.005552  0.038262  0.009124 -0.071955
  2C   3s        -0.004727  0.013162  0.000837  0.025528  0.009471 -0.058303
  2C   1pz        0.164536  0.086652 -0.248066 -0.123677  0.032995  0.036264
  2C   1px       -0.012965 -0.163468 -0.045849 -0.002898 -0.251651 -0.184124
  2C   1py        0.154245 -0.112458 -0.015444 -0.159975  0.140014 -0.225495
  2C   2pz        0.060521  0.024066 -0.084982 -0.044853  0.012741  0.024714
  2C   2px       -0.002268 -0.053456 -0.013077 -0.014917 -0.088732 -0.049831
  2C   2py        0.054894 -0.036495  0.000535 -0.034628  0.048635 -0.092912
  2C   1dz2       0.001377  0.003339 -0.005329  0.002397  0.005473  0.001942
  2C   1dxz       0.000832  0.002295 -0.002263  0.007980  0.001574 -0.000842
  2C   1dyz      -0.002406  0.002469  0.003824  0.001373 -0.004935  0.005539
  2C   1dx2y2     0.000207  0.000852 -0.003751 -0.002892 -0.001399 -0.008713
  2C   1dxy       0.001545 -0.005642 -0.001123  0.010616  0.001238 -0.000567
  3C   1s        -0.000771 -0.022015  0.000000  0.021410 -0.000000  0.000000
  3C   2s         0.003092  0.052778 -0.000000 -0.047889  0.000000 -0.000000
  3C   3s        -0.008541  0.011839  0.000000 -0.058846 -0.000000  0.000000
  3C   1pz        0.154905  0.032463  0.000000 -0.230878  0.000000 -0.000000
  3C   1px        0.026551 -0.212575 -0.000000  0.025682  0.000000  0.000000
  3C   1py       -0.000000 -0.000000 -0.124968 -0.000000 -0.233408  0.120543
  3C   2pz        0.054146  0.021514  0.000000 -0.124204 -0.000000  0.000000
  3C   2px        0.005786 -0.094324  0.000000 -0.003895 -0.000000  0.000000
  3C   2py        0.000000 -0.000000 -0.040299  0.000000 -0.082241  0.001657
  3C   1dz2       0.003330  0.001127 -0.000000 -0.000683  0.000000 -0.000000
  3C   1dxz       0.005770 -0.003685  0.000000 -0.004354 -0.000000  0.000000
  3C   1dyz       0.000000 -0.000000  0.006240 -0.000000 -0.010564  0.001519
  3C   1dx2y2     0.004423 -0.004475 -0.000000 -0.006370  0.000000 -0.000000
  3C   1dxy       0.000000 -0.000000 -0.004340  0.000000  0.000115  0.012373
  4C   1s         0.004655  0.004039 -0.001689 -0.016530  0.004162 -0.027229
  4C   2s        -0.010934 -0.012920  0.005552  0.038262 -0.009124  0.071955
  4C   3s        -0.004727  0.013162 -0.000837  0.025528 -0.009471  0.058303
  4C   1pz        0.164536  0.086652  0.248066 -0.123677 -0.032995 -0.036264
  4C   1px       -0.012965 -0.163468  0.045849 -0.002898  0.251651  0.184124
  4C   1py       -0.154245  0.112458 -0.015444  0.159975  0.140014 -0.225495
  4C   2pz        0.060521  0.024066  0.084982 -0.044853 -0.012741 -0.024714
  4C   2px       -0.002268 -0.053456  0.013077 -0.014917  0.088732  0.049831
  4C   2py       -0.054894  0.036495  0.000535  0.034628  0.048635 -0.092912
  4C   1dz2       0.001377  0.003339  0.005329  0.002397 -0.005473 -0.001942
  4C   1dxz       0.000832  0.002295  0.002263  0.007980 -0.001574  0.000842
  4C   1dyz       0.002406 -0.002469  0.003824 -0.001373 -0.004935  0.005539
  4C   1dx2y2     0.000207  0.000852  0.003751 -0.002892  0.001399  0.008713
  4C   1dxy      -0.001545  0.005642 -0.001123 -0.010616  0.001238 -0.000567
  5H   1s         0.000827  0.148405 -0.000000 -0.068497  0.000000 -0.000000
  5H   2s        -0.001731  0.001579 -0.000000 -0.010052  0.000000 -0.000000
  5H   1pz        0.003320 -0.001049 -0.000000 -0.003496  0.000000 -0.000000
  5H   1px        0.000171  0.009749 -0.000000 -0.004373  0.000000 -0.000000
  5H   1py       -0.000000  0.000000 -0.001701 -0.000000 -0.006182  0.001929
  6H   1s        -0.093721 -0.013249 -0.000000  0.141022  0.000000 -0.000000
  6H   2s        -0.009314  0.013781 -0.000000  0.005402  0.000000 -0.000000
  6H   1pz       -0.006337  0.000387 -0.000000  0.007472  0.000000  0.000000
  6H   1px        0.000287 -0.004304 -0.000000  0.000290  0.000000 -0.000000
  6H   1py       -0.000000  0.000000 -0.004544 -0.000000 -0.004012  0.003875
  7C   1s         0.004655  0.004039  0.001689  0.016530 -0.004162  0.027229
  7C   2s        -0.010934 -0.012920 -0.005552 -0.038262  0.009124 -0.071955
  7C   3s        -0.004727  0.013162  0.000837 -0.025528  0.009471 -0.058303
  7C   1pz        0.164536  0.086652 -0.248066  0.123677  0.032995  0.036264
  7C   1px        0.012965  0.163468  0.045849 -0.002898  0.251651  0.184124
  7C   1py        0.154245 -0.112458 -0.015444  0.159975  0.140014 -0.225495
  7C   2pz        0.060521  0.024066 -0.084982  0.044853  0.012741  0.024714
  7C   2px        0.002268  0.053456  0.013077 -0.014917  0.088732  0.049831
  7C   2py        0.054894 -0.036495  0.000535  0.034628  0.048635 -0.092912
  7C   1dz2       0.001377  0.003339 -0.005329 -0.002397  0.005473  0.001942
  7C   1dxz      -0.000832 -0.002295  0.002263  0.007980 -0.001574  0.000842
  7C   1dyz      -0.002406  0.002469  0.003824 -0.001373 -0.004935  0.005539
  7C   1dx2y2     0.000207  0.000852 -0.003751  0.002892 -0.001399 -0.008713
  7C   1dxy      -0.001545  0.005642  0.001123  0.010616 -0.001238  0.000567
  8H   1s        -0.137566  0.061137  0.108067  0.165691 -0.036438  0.150936
  8H   2s        -0.005719  0.003414  0.014669  0.030918 -0.007919  0.036117
  8H   1pz       -0.002186  0.005104 -0.001687  0.003567 -0.000483  0.007356
  8H   1px       -0.006164 -0.001510  0.003632  0.001977 -0.008688  0.000400
  8H   1py       -0.006923  0.002554  0.006701  0.007354  0.001586  0.003541
  9H   1s         0.088367  0.097340 -0.154730 -0.055847  0.078937  0.065490
  9H   2s         0.001829  0.014396 -0.016491 -0.005910  0.013680  0.012384
  9H   1pz       -0.003270 -0.006943  0.006422  0.000786 -0.004936 -0.005071
  9H   1px        0.003249 -0.000093 -0.007879  0.000202 -0.003363 -0.003442
  9H   1py        0.004818 -0.000631 -0.002159 -0.006584  0.003955 -0.005326
 10H   1s        -0.093721 -0.013249  0.000000 -0.141022 -0.000000  0.000000
 10H   2s        -0.009314  0.013781  0.000000 -0.005402 -0.000000  0.000000
 10H   1pz       -0.006337  0.000387  0.000000 -0.007472 -0.000000  0.000000
 10H   1px       -0.000287  0.004304 -0.000000  0.000290  0.000000 -0.000000
 10H   1py        0.000000 -0.000000 -0.004544  0.000000 -0.004012  0.003875
 11H   1s         0.000827  0.148405  0.000000  0.068497  0.000000  0.000000
 11H   2s        -0.001731  0.001579  0.000000  0.010052 -0.000000  0.000000
 11H   1pz        0.003320 -0.001049  0.000000  0.003496 -0.000000  0.000000
 11H   1px       -0.000171 -0.009749 -0.000000 -0.004373  0.000000 -0.000000
 11H   1py        0.000000 -0.000000 -0.001701  0.000000 -0.006182  0.001929
 12H   1s        -0.137566  0.061137  0.108067 -0.165691 -0.036438  0.150936
 12H   2s        -0.005719  0.003414  0.014669 -0.030918 -0.007919  0.036117
 12H   1pz       -0.002186  0.005104 -0.001687 -0.003567 -0.000483  0.007356
 12H   1px        0.006164  0.001510 -0.003632  0.001977  0.008688 -0.000400
 12H   1py       -0.006923  0.002554  0.006701 -0.007354  0.001586  0.003541
 13H   1s         0.088367  0.097340 -0.154730  0.055847  0.078937  0.065490
 13H   2s         0.001829  0.014396 -0.016491  0.005910  0.013680  0.012384
 13H   1pz       -0.003270 -0.006943  0.006422 -0.000786 -0.004936 -0.005071
 13H   1px       -0.003249  0.000093  0.007879  0.000202  0.003363  0.003442
 13H   1py        0.004818 -0.000631 -0.002159  0.006584  0.003955 -0.005326
 14H   1s         0.088367  0.097340  0.154730  0.055847 -0.078937 -0.065490
 14H   2s         0.001829  0.014396  0.016491  0.005910 -0.013680 -0.012384
 14H   1pz       -0.003270 -0.006943 -0.006422 -0.000786  0.004936  0.005071
 14H   1px       -0.003249  0.000093 -0.007879  0.000202 -0.003363 -0.003442
 14H   1py       -0.004818  0.000631 -0.002159 -0.006584  0.003955 -0.005326
 15H   1s        -0.137566  0.061137 -0.108067 -0.165691  0.036438 -0.150936
 15H   2s        -0.005719  0.003414 -0.014669 -0.030918  0.007919 -0.036117
 15H   1pz       -0.002186  0.005104  0.001687 -0.003567  0.000483 -0.007356
 15H   1px        0.006164  0.001510  0.003632  0.001977 -0.008688  0.000400
 15H   1py        0.006923 -0.002554  0.006701  0.007354  0.001586  0.003541
 16H   1s         0.088367  0.097340  0.154730 -0.055847 -0.078937 -0.065490
 16H   2s         0.001829  0.014396  0.016491 -0.005910 -0.013680 -0.012384
 16H   1pz       -0.003270 -0.006943 -0.006422  0.000786  0.004936  0.005071
 16H   1px        0.003249 -0.000093  0.007879  0.000202  0.003363  0.003442
 16H   1py       -0.004818  0.000631 -0.002159  0.006584  0.003955 -0.005326
 17H   1s        -0.137566  0.061137 -0.108067  0.165691  0.036438 -0.150936
 17H   2s        -0.005719  0.003414 -0.014669  0.030918  0.007919 -0.036117
 17H   1pz       -0.002186  0.005104  0.001687  0.003567  0.000483 -0.007356
 17H   1px       -0.006164 -0.001510 -0.003632  0.001977  0.008688 -0.000400
 17H   1py        0.006923 -0.002554  0.006701 -0.007354  0.001586  0.003541
                     18        19        20        21        22        23   
                  -0.46768  -0.45830  -0.45658  -0.41699  -0.41490  -0.39861
                   2.00000   2.00000   2.00000   2.00000   2.00000   2.00000
                  --------  --------  --------  --------  --------  --------
  0C   1s         0.016220  0.007553  0.000000 -0.006571 -0.000000 -0.008528
  0C   2s        -0.051671 -0.014427 -0.000000  0.017659  0.000000  0.024404
  0C   3s         0.019933 -0.000952  0.000000 -0.016388 -0.000000  0.029166
  0C   1pz       -0.002160  0.268048  0.000000  0.109211 -0.000000  0.245405
  0C   1px        0.349029 -0.069604 -0.000000  0.234225 -0.000000  0.012419
  0C   1py       -0.000000 -0.000000  0.184559  0.000000  0.257402  0.000000
  0C   2pz       -0.011627  0.107625  0.000000  0.035700 -0.000000  0.048178
  0C   2px        0.091380 -0.027600 -0.000000  0.100078  0.000000 -0.027739
  0C   2py        0.000000 -0.000000  0.108211  0.000000  0.052754  0.000000
  0C   1dz2      -0.003453 -0.013283 -0.000000 -0.010208  0.000000 -0.017992
  0C   1dxz       0.005097 -0.001113 -0.000000 -0.000738  0.000000  0.000733
  0C   1dyz       0.000000  0.000000 -0.007867  0.000000  0.010460  0.000000
  0C   1dx2y2     0.008457 -0.009034 -0.000000  0.015628  0.000000 -0.004216
  0C   1dxy      -0.000000  0.000000 -0.005278 -0.000000 -0.005289 -0.000000
  1C   1s         0.022689 -0.011767  0.005542 -0.007210 -0.006915 -0.005541
  1C   2s        -0.052639  0.031637 -0.020400  0.023597  0.020347  0.022570
  1C   3s        -0.154107  0.004138  0.063922  0.030286  0.042677 -0.074186
  1C   1pz        0.055167 -0.148757 -0.250085 -0.042589  0.051047 -0.206265
  1C   1px        0.011111  0.141587  0.007838 -0.226468  0.030737  0.018843
  1C   1py        0.132634 -0.044413 -0.033252  0.001163 -0.254413 -0.014391
  1C   2pz        0.033408 -0.049555 -0.058736 -0.008361 -0.015493 -0.034434
  1C   2px        0.083611  0.054097 -0.052031 -0.072899  0.034914  0.066822
  1C   2py        0.043344 -0.013929 -0.029626 -0.003643 -0.099572 -0.016327
  1C   1dz2      -0.000672 -0.008195 -0.007137 -0.009938  0.002098 -0.012340
  1C   1dxz       0.001311  0.005277 -0.015386 -0.000994  0.002107 -0.010911
  1C   1dyz      -0.004069 -0.007237 -0.002062 -0.004942  0.008831 -0.008132
  1C   1dx2y2     0.008433 -0.007086  0.000120  0.008874  0.007076 -0.003387
  1C   1dxy       0.002349  0.000734 -0.002362 -0.006381 -0.015664 -0.002092
  2C   1s        -0.022689 -0.011767  0.005542 -0.007210 -0.006915  0.005541
  2C   2s         0.052639  0.031637 -0.020400  0.023597  0.020347 -0.022570
  2C   3s         0.154107  0.004138  0.063922  0.030286  0.042677  0.074186
  2C   1pz       -0.055167 -0.148757 -0.250085 -0.042589  0.051047  0.206265
  2C   1px        0.011111 -0.141587 -0.007838  0.226468 -0.030737  0.018843
  2C   1py        0.132634  0.044413  0.033252 -0.001163  0.254413 -0.014391
  2C   2pz       -0.033408 -0.049555 -0.058736 -0.008361 -0.015493  0.034434
  2C   2px        0.083611 -0.054097  0.052031  0.072899 -0.034914  0.066822
  2C   2py        0.043344  0.013929  0.029626  0.003643  0.099572 -0.016327
  2C   1dz2       0.000672 -0.008195 -0.007137 -0.009938  0.002098  0.012340
  2C   1dxz       0.001311 -0.005277  0.015386  0.000994 -0.002107 -0.010911
  2C   1dyz      -0.004069  0.007237  0.002062  0.004942 -0.008831 -0.008132
  2C   1dx2y2    -0.008433 -0.007086  0.000120  0.008874  0.007076  0.003387
  2C   1dxy      -0.002349  0.000734 -0.002362 -0.006381 -0.015664  0.002092
  3C   1s        -0.016220  0.007553  0.000000 -0.006571 -0.000000  0.008528
  3C   2s         0.051671 -0.014427  0.000000  0.017659  0.000000 -0.024404
  3C   3s        -0.019933 -0.000952 -0.000000 -0.016388 -0.000000 -0.029166
  3C   1pz        0.002160  0.268048  0.000000  0.109211  0.000000 -0.245405
  3C   1px        0.349029  0.069604  0.000000 -0.234225  0.000000  0.012419
  3C   1py        0.000000  0.000000 -0.184559 -0.000000 -0.257402 -0.000000
  3C   2pz        0.011627  0.107625  0.000000  0.035700 -0.000000 -0.048178
  3C   2px        0.091380  0.027600 -0.000000 -0.100078  0.000000 -0.027739
  3C   2py       -0.000000  0.000000 -0.108211 -0.000000 -0.052754  0.000000
  3C   1dz2       0.003453 -0.013283 -0.000000 -0.010208  0.000000  0.017992
  3C   1dxz       0.005097  0.001113 -0.000000  0.000738  0.000000  0.000733
  3C   1dyz      -0.000000 -0.000000  0.007867 -0.000000 -0.010460  0.000000
  3C   1dx2y2    -0.008457 -0.009034 -0.000000  0.015628 -0.000000  0.004216
  3C   1dxy      -0.000000  0.000000 -0.005278 -0.000000 -0.005289  0.000000
  4C   1s        -0.022689 -0.011767 -0.005542 -0.007210  0.006915  0.005541
  4C   2s         0.052639  0.031637  0.020400  0.023597 -0.020347 -0.022570
  4C   3s         0.154107  0.004138 -0.063922  0.030286 -0.042677  0.074186
  4C   1pz       -0.055167 -0.148757  0.250085 -0.042589 -0.051047  0.206265
  4C   1px        0.011111 -0.141587  0.007838  0.226468  0.030737  0.018843
  4C   1py       -0.132634 -0.044413  0.033252  0.001163  0.254413  0.014391
  4C   2pz       -0.033408 -0.049555  0.058736 -0.008361  0.015493  0.034434
  4C   2px        0.083611 -0.054097 -0.052031  0.072899  0.034914  0.066822
  4C   2py       -0.043344 -0.013929  0.029626 -0.003643  0.099572  0.016327
  4C   1dz2       0.000672 -0.008195  0.007137 -0.009938 -0.002098  0.012340
  4C   1dxz       0.001311 -0.005277 -0.015386  0.000994  0.002107 -0.010911
  4C   1dyz       0.004069 -0.007237  0.002062 -0.004942 -0.008831  0.008132
  4C   1dx2y2    -0.008433 -0.007086 -0.000120  0.008874 -0.007076  0.003387
  4C   1dxy       0.002349 -0.000734 -0.002362  0.006381 -0.015664 -0.002092
  5H   1s        -0.260196 -0.029148 -0.000000  0.238266 -0.000000 -0.066076
  5H   2s        -0.067174 -0.010786 -0.000000  0.074445  0.000000 -0.029137
  5H   1pz        0.003446  0.007962  0.000000 -0.000565  0.000000 -0.007890
  5H   1px       -0.011963 -0.001349 -0.000000  0.010030  0.000000 -0.003261
  5H   1py        0.000000  0.000000 -0.001964  0.000000 -0.007843 -0.000000
  6H   1s         0.045116 -0.227575 -0.000000 -0.122391 -0.000000  0.230506
  6H   2s         0.009471 -0.060364 -0.000000 -0.042827  0.000000  0.091072
  6H   1pz        0.002863 -0.010633 -0.000000 -0.004543 -0.000000  0.008560
  6H   1px        0.010027  0.003448  0.000000 -0.007120  0.000000 -0.002361
  6H   1py        0.000000  0.000000 -0.004960 -0.000000 -0.005950 -0.000000
  7C   1s         0.022689 -0.011767 -0.005542 -0.007210  0.006915 -0.005541
  7C   2s        -0.052639  0.031637  0.020400  0.023597 -0.020347  0.022570
  7C   3s        -0.154107  0.004138 -0.063922  0.030286 -0.042677 -0.074186
  7C   1pz        0.055167 -0.148757  0.250085 -0.042589 -0.051047 -0.206265
  7C   1px        0.011111  0.141587 -0.007838 -0.226468 -0.030737  0.018843
  7C   1py       -0.132634  0.044413 -0.033252 -0.001163 -0.254413  0.014391
  7C   2pz        0.033408 -0.049555  0.058736 -0.008361  0.015493 -0.034434
  7C   2px        0.083611  0.054097  0.052031 -0.072899 -0.034914  0.066822
  7C   2py       -0.043344  0.013929 -0.029626  0.003643 -0.099572  0.016327
  7C   1dz2      -0.000672 -0.008195  0.007137 -0.009938 -0.002098 -0.012340
  7C   1dxz       0.001311  0.005277  0.015386 -0.000994 -0.002107 -0.010911
  7C   1dyz       0.004069  0.007237 -0.002062  0.004942  0.008831  0.008132
  7C   1dx2y2     0.008433 -0.007086 -0.000120  0.008874 -0.007076 -0.003387
  7C   1dxy      -0.002349 -0.000734 -0.002362  0.006381 -0.015664  0.002092
  8H   1s        -0.042678  0.088990  0.081836 -0.037078 -0.202140 -0.106878
  8H   2s        -0.016813  0.025486  0.028032 -0.012121 -0.074322 -0.043668
  8H   1pz       -0.002764 -0.000512 -0.005095 -0.003409 -0.005736  0.004545
  8H   1px       -0.001568  0.000192 -0.000556  0.006895 -0.002298 -0.001820
  8H   1py        0.000393  0.004969  0.006571 -0.002502 -0.004319 -0.004896
  9H   1s        -0.033588 -0.075000 -0.210834 -0.102736  0.035686  0.183806
  9H   2s        -0.009366 -0.023788 -0.058393 -0.041585  0.011907  0.074693
  9H   1pz        0.001493  0.000367  0.007579  0.004994  0.000775 -0.004829
  9H   1px       -0.001039 -0.007947 -0.003690  0.002977  0.000104  0.001640
  9H   1py        0.002622  0.000913 -0.002148  0.000616  0.008723  0.000684
 10H   1s        -0.045116 -0.227575 -0.000000 -0.122391  0.000000 -0.230506
 10H   2s        -0.009471 -0.060364 -0.000000 -0.042827  0.000000 -0.091072
 10H   1pz       -0.002863 -0.010633 -0.000000 -0.004543  0.000000 -0.008560
 10H   1px        0.010027 -0.003448  0.000000  0.007120 -0.000000 -0.002361
 10H   1py       -0.000000 -0.000000  0.004960 -0.000000  0.005950 -0.000000
 11H   1s         0.260196 -0.029148  0.000000  0.238266 -0.000000  0.066076
 11H   2s         0.067174 -0.010786 -0.000000  0.074445  0.000000  0.029137
 11H   1pz       -0.003446  0.007962 -0.000000 -0.000565  0.000000  0.007890
 11H   1px       -0.011963  0.001349  0.000000 -0.010030  0.000000 -0.003261
 11H   1py       -0.000000 -0.000000  0.001964 -0.000000  0.007843 -0.000000
 12H   1s         0.042678  0.088990 -0.081836 -0.037078  0.202140  0.106878
 12H   2s         0.016813  0.025486 -0.028032 -0.012121  0.074322  0.043668
 12H   1pz        0.002764 -0.000512  0.005095 -0.003409  0.005736 -0.004545
 12H   1px       -0.001568 -0.000192 -0.000556 -0.006895 -0.002298 -0.001820
 12H   1py       -0.000393  0.004969 -0.006571 -0.002502  0.004319  0.004896
[...]
     52      -0.099321   0.062278   0.074521   0.084249  -0.073429   0.064116
     53      -0.298887   0.209336   0.217641   0.294976  -0.208743   0.217976
                 42         43         44         45         46         47    
      0      -0.002496  -0.000007   0.020011  -0.026278   0.000002  -0.004604
      1      -0.000000  -0.000212  -0.000000  -0.000000   0.000942  -0.000000
      2       0.033720   0.000010  -0.031566   0.036078  -0.000001  -0.025966
      3      -0.012965   0.018820  -0.012884   0.008071  -0.020064   0.016961
      4      -0.011526   0.020016  -0.017278   0.012356  -0.020895   0.016305
      5      -0.022546   0.022277  -0.007001   0.000874  -0.020354   0.021874
      6      -0.012967  -0.018809  -0.012898  -0.008074  -0.020061  -0.016963
      7      -0.011528  -0.020002  -0.017293  -0.012359  -0.020891  -0.016307
      8       0.022548   0.022268   0.007018   0.000876   0.020351   0.021877
      9      -0.002497  -0.000007   0.020012   0.026278  -0.000002   0.004604
     10       0.000000   0.000212   0.000000   0.000000   0.000942   0.000000
     11      -0.033720  -0.000010   0.031566   0.036076  -0.000001  -0.025967
     12      -0.012964   0.018820  -0.012884  -0.008071   0.020064  -0.016961
     13       0.011525  -0.020016   0.017278   0.012356  -0.020895   0.016305
     14       0.022546  -0.022277   0.007001   0.000874  -0.020354   0.021874
     15       0.109807   0.000115  -0.320310  -0.403809   0.000025  -0.002807
     16      -0.000000  -0.003303  -0.000001  -0.000000  -0.005271  -0.000000
     17      -0.021551  -0.000015   0.044481   0.053375  -0.000003  -0.004603
     18      -0.083086  -0.000028   0.087464   0.102158  -0.000003  -0.060492
     19      -0.000000   0.000787   0.000000   0.000000   0.000372   0.000000
     20       0.426367   0.000130  -0.416385  -0.483176   0.000013   0.315531
     21      -0.012966  -0.018809  -0.012898   0.008074   0.020061   0.016963
     22       0.011528   0.020002   0.017293  -0.012359  -0.020891  -0.016308
     23      -0.022548  -0.022268  -0.007018   0.000876   0.020351   0.021876
     24       0.040236   0.086031   0.082868   0.061680   0.093301   0.067158
     25       0.108588   0.210566   0.193410   0.143012   0.224808   0.167092
     26       0.071187   0.136265   0.122497   0.091008   0.146026   0.107876
     27       0.115780   0.135487   0.068017   0.032207   0.131924   0.126642
     28       0.023038   0.022812   0.010379   0.003479   0.020963   0.022934
     29      -0.340033  -0.399275  -0.205161  -0.101488  -0.387668  -0.369309
     30      -0.083082  -0.000026   0.087461  -0.102163   0.000005   0.060494
     31       0.000001  -0.000786   0.000000   0.000000   0.000373   0.000001
     32      -0.426363  -0.000131   0.416377  -0.483189   0.000017   0.315529
     33       0.109795   0.000114  -0.320296   0.403823  -0.000029   0.002804
     34       0.000000   0.003304   0.000001  -0.000000  -0.005270  -0.000000
     35       0.021550   0.000015  -0.044480   0.053378  -0.000004  -0.004604
     36       0.040237   0.086032   0.082868  -0.061681  -0.093300  -0.067157
     37      -0.108588  -0.210566  -0.193409   0.143014   0.224808   0.167092
     38      -0.071186  -0.136265  -0.122497   0.091009   0.146026   0.107876
     39       0.115782   0.135488   0.068017  -0.032207  -0.131923  -0.126640
     40      -0.023038  -0.022812  -0.010378   0.003480   0.020963   0.022934
     41       0.340033   0.399275   0.205162  -0.101487  -0.387668  -0.369308
     42       0.115765  -0.135552   0.067914  -0.032190   0.131942  -0.126627
     43       0.023035  -0.022823   0.010360  -0.003476   0.020969  -0.022930
     44       0.339985  -0.399472   0.204860  -0.101436   0.387719  -0.369268
     45       0.040227  -0.086095   0.082804  -0.061669   0.093316  -0.067148
     46       0.108565  -0.210718   0.193255  -0.142983   0.224845  -0.167068
     47      -0.071171   0.136362  -0.122397   0.090989  -0.146048   0.107861
     48       0.115765  -0.135554   0.067916   0.032190  -0.131941   0.126626
     49      -0.023034   0.022823  -0.010361  -0.003476   0.020969  -0.022930
     50      -0.339983   0.399472  -0.204864  -0.101438   0.387719  -0.369267
     51       0.040227  -0.086096   0.082806   0.061667  -0.093315   0.067147
     52      -0.108562   0.210718  -0.193258  -0.142981   0.224846  -0.167067
     53       0.071169  -0.136362   0.122399   0.090988  -0.146049   0.107861
                 48         49         50         51         52         53    
      0       0.030578   0.000003   0.049619   0.046645  -0.000000   0.018794
      1       0.000000  -0.000337  -0.000000   0.000000   0.000190   0.000000
      2       0.003745   0.000000   0.026133   0.033336  -0.000000   0.024458
      3       0.005636  -0.004956   0.007570   0.001202   0.004151  -0.001255
      4       0.025324  -0.027022   0.017110  -0.009021   0.025809  -0.020624
      5      -0.029550   0.037864  -0.010656   0.021499  -0.038569   0.035847
      6       0.005635   0.004957  -0.007567   0.001224   0.004151   0.001255
      7       0.025318   0.027027  -0.017135  -0.008972   0.025808   0.020625
      8       0.029543   0.037870  -0.010717  -0.021469   0.038569   0.035848
      9       0.030578   0.000003  -0.049486   0.046787   0.000000  -0.018794
     10      -0.000000   0.000337   0.000000  -0.000000   0.000190   0.000000
     11      -0.003745  -0.000000   0.026039  -0.033410  -0.000000   0.024459
     12       0.005636  -0.004956  -0.007567   0.001224  -0.004151   0.001255
     13      -0.025324   0.027022   0.017135   0.008972   0.025809  -0.020624
     14       0.029550  -0.037864  -0.010717  -0.021469  -0.038569   0.035847
     15      -0.361913  -0.000032   0.542699  -0.499973  -0.000002   0.181698
     16       0.000000  -0.000114   0.000000   0.000000   0.000207   0.000000
     17       0.037188   0.000003  -0.054003   0.048597   0.000000  -0.017252
     18       0.001061  -0.000000   0.043630  -0.059624  -0.000000   0.047181
     19      -0.000000   0.000379  -0.000000   0.000000   0.001442   0.000000
     20       0.016630   0.000003  -0.265703   0.346546   0.000002  -0.267253
     21       0.005635   0.004957   0.007570   0.001202  -0.004151  -0.001255
     22      -0.025318  -0.027027  -0.017110   0.009021   0.025808   0.020625
     23      -0.029543  -0.037870  -0.010656   0.021500   0.038568   0.035848
     24      -0.130657  -0.145598   0.084789   0.050458  -0.141599  -0.113784
     25      -0.312031  -0.342444   0.201623   0.121281  -0.332408  -0.269361
     26      -0.185262  -0.203801   0.120653   0.071782  -0.197043  -0.159510
     27       0.061761   0.088013  -0.005996  -0.063973   0.094457   0.096099
     28       0.017285   0.021909  -0.003296  -0.016573   0.022929   0.025607
     29      -0.169562  -0.244177   0.011765   0.182908  -0.262689  -0.271108
     30       0.001059  -0.000001  -0.043797  -0.059501   0.000000  -0.047181
     31      -0.000000  -0.000379   0.000000  -0.000000   0.001442  -0.000000
     32      -0.016631  -0.000003  -0.266684  -0.345786   0.000002  -0.267251
     33      -0.361908  -0.000032  -0.544131  -0.498409   0.000004  -0.181698
     34      -0.000000   0.000114   0.000000  -0.000000   0.000207  -0.000000
     35      -0.037187  -0.000003  -0.054142  -0.048441   0.000000  -0.017252
     36      -0.130656  -0.145599  -0.084645   0.050701   0.141599   0.113783
     37       0.312029   0.342444   0.201277  -0.121861  -0.332409  -0.269360
     38       0.185260   0.203801   0.120449  -0.072129  -0.197043  -0.159510
     39       0.061761   0.088013   0.005814  -0.063990  -0.094457  -0.096099
     40      -0.017285  -0.021909  -0.003249   0.016582   0.022929   0.025607
     41       0.169564   0.244177   0.011242  -0.182941  -0.262688  -0.271107
     42       0.061775  -0.088003   0.005814  -0.063989   0.094458  -0.096098
     43       0.017289  -0.021906   0.003250  -0.016582   0.022928  -0.025607
     44       0.169602  -0.244148   0.011243  -0.182939   0.262693  -0.271104
     45      -0.130685   0.145573  -0.084646   0.050702  -0.141601   0.113781
     46      -0.312096   0.342384  -0.201278   0.121862  -0.332413   0.269354
     47       0.185300  -0.203765   0.120450  -0.072130   0.197046  -0.159506
     48       0.061775  -0.088003  -0.005997  -0.063973  -0.094458   0.096098
     49      -0.017289   0.021906   0.003297   0.016573   0.022928  -0.025607
     50      -0.169603   0.244149   0.011765   0.182907   0.262692  -0.271104
     51      -0.130685   0.145573   0.084790   0.050458   0.141601  -0.113781
     52       0.312096  -0.342384  -0.201624  -0.121283  -0.332413   0.269354
     53      -0.185300   0.203765   0.120655   0.071784   0.197045  -0.159506


-----------
IR SPECTRUM
-----------

 Mode    freq (cm**-1)   T**2         TX         TY         TZ
-------------------------------------------------------------------
   7:       227.08    0.016749  (  0.129417  -0.000000   0.000000)
   8:       293.23    0.007515  (  0.000001   0.000015   0.086688)
   9:       435.70    0.666978  (  0.000022  -0.000007   0.816688)
  10:       456.69    0.000000  ( -0.000022   0.000002  -0.000214)
  11:       554.10    0.830089  (  0.911092  -0.000002  -0.000014)
  12:       749.80    0.893798  ( -0.000012  -0.945409  -0.000549)
  13:       751.15    3.234078  (  0.000018  -0.000303   1.798354)
  14:       786.79    0.040667  ( -0.000039   0.000061  -0.201660)
  15:       847.66    1.657524  (  0.000706  -1.287448  -0.000017)
  16:       853.53    1.401678  (  1.183924   0.000778  -0.000018)
  17:       863.84    0.000000  ( -0.000029  -0.000017  -0.000001)
  18:       928.56    0.053240  (  0.000010  -0.000008  -0.230737)
  19:       978.17    0.691292  (  0.831440  -0.000009   0.000003)
  20:      1013.15    0.000000  (  0.000043  -0.000005  -0.000024)
  21:      1038.42    0.162824  (  0.000016  -0.000002  -0.403515)
  22:      1077.38    0.004584  ( -0.000028  -0.067702  -0.000006)
  23:      1093.45    0.000038  (  0.000073   0.006197   0.000001)
  24:      1115.74    1.182867  (  1.087597   0.000006   0.000010)
  25:      1133.37    0.202738  (  0.000018  -0.450264  -0.000000)
  26:      1209.37    0.000000  ( -0.000003  -0.000009  -0.000006)
  27:      1221.53    0.000000  (  0.000015   0.000013   0.000016)
  28:      1252.48    0.254440  ( -0.000006  -0.000010   0.504420)
  29:      1257.99    1.524738  ( -1.234803  -0.000002   0.000001)
  30:      1283.35    0.000000  ( -0.000045  -0.000002  -0.000011)
  31:      1304.33    0.017791  ( -0.000051   0.000020   0.133384)
  32:      1316.86    0.045310  ( -0.000760  -0.212861   0.000002)
  33:      1320.65    5.349193  ( -2.312832   0.000172  -0.000002)
  34:      1332.09    0.000000  (  0.000021  -0.000639   0.000015)
  35:      1332.90    5.084688  ( -0.000072  -2.254925  -0.000011)
  36:      1408.26    0.000000  (  0.000014  -0.000011   0.000023)
  37:      1411.34    0.213812  (  0.462398  -0.000002  -0.000011)
  38:      1421.11    2.247562  ( -1.499187  -0.000024   0.000042)
  39:      1426.08    3.544258  (  0.000006   1.882620   0.000037)
  40:      1431.64    7.543400  ( -0.000018   0.000028  -2.746525)
  41:      1445.54    0.008164  (  0.000024   0.000022  -0.090355)
  42:      2934.63   44.856465  ( -6.697497  -0.000023  -0.000044)
  43:      2937.64    0.000001  (  0.000799  -0.000001  -0.000002)
  44:      2938.06    1.353419  ( -1.163365   0.000024   0.000065)
  45:      2946.25   47.426507  ( -0.000078  -0.000562   6.886691)
  46:      2950.32   69.728129  (  0.000025  -8.350337  -0.000577)
  47:      2951.21    6.616202  (  0.000027  -0.000438   2.572198)
  48:      2977.26   47.718877  (  6.907885   0.000021   0.000006)
  49:      2977.57    0.000000  (  0.000654   0.000001  -0.000005)
  50:      2988.06    0.349511  (  0.009168   0.000017   0.591123)
  51:      2988.14   40.528138  (  6.366171   0.000009  -0.000818)
  52:      2996.95   42.429812  ( -0.000016   6.513817  -0.000077)
  53:      3004.22  102.261610  ( -0.000000   0.000066  10.112448)

The first frequency considered to be a vibration is 7
The total number of vibrations considered is 47


--------------------------
THERMOCHEMISTRY AT 298.15K
--------------------------

Temperature         ... 298.15 K
Pressure            ... 1.00 atm
Total Mass          ... 84.16 AMU

Throughout the following assumptions are being made:
  (1) The electronic state is orbitally nondegenerate
  (2) There are no thermally accessible electronically excited states
  (3) Hindered rotations indicated by low frequency modes are not
      treated as such but are treated as vibrations and this may
      cause some error
  (4) All equations used are the standard statistical mechanics
      equations for an ideal gas
  (5) All vibrations are strictly harmonic

freq.     227.08  E(vib)   ...       0.33 
freq.     293.23  E(vib)   ...       0.27 
freq.     435.70  E(vib)   ...       0.17 
freq.     456.69  E(vib)   ...       0.16 
freq.     554.10  E(vib)   ...       0.12 
freq.     749.80  E(vib)   ...       0.06 
freq.     751.15  E(vib)   ...       0.06 
freq.     786.79  E(vib)   ...       0.05 
freq.     847.66  E(vib)   ...       0.04 
freq.     853.53  E(vib)   ...       0.04 
freq.     863.84  E(vib)   ...       0.04 
freq.     928.56  E(vib)   ...       0.03 
freq.     978.17  E(vib)   ...       0.03 
freq.    1013.15  E(vib)   ...       0.02 
freq.    1038.42  E(vib)   ...       0.02 
freq.    1077.38  E(vib)   ...       0.02 
freq.    1093.45  E(vib)   ...       0.02 
freq.    1115.74  E(vib)   ...       0.01 
freq.    1133.37  E(vib)   ...       0.01 
freq.    1209.37  E(vib)   ...       0.01 
freq.    1221.53  E(vib)   ...       0.01 
freq.    1252.48  E(vib)   ...       0.01 
freq.    1257.99  E(vib)   ...       0.01 
freq.    1283.35  E(vib)   ...       0.01 
freq.    1304.33  E(vib)   ...       0.01 
freq.    1316.86  E(vib)   ...       0.01 
freq.    1320.65  E(vib)   ...       0.01 
freq.    1332.09  E(vib)   ...       0.01 
freq.    1332.90  E(vib)   ...       0.01 
freq.    1408.26  E(vib)   ...       0.00 
freq.    1411.34  E(vib)   ...       0.00 
freq.    1421.11  E(vib)   ...       0.00 
freq.    1426.08  E(vib)   ...       0.00 
freq.    1431.64  E(vib)   ...       0.00 
freq.    1445.54  E(vib)   ...       0.00 
freq.    2934.63  E(vib)   ...       0.00 
freq.    2937.64  E(vib)   ...       0.00 
freq.    2938.06  E(vib)   ...       0.00 
freq.    2946.25  E(vib)   ...       0.00 
freq.    2950.32  E(vib)   ...       0.00 
freq.    2951.21  E(vib)   ...       0.00 
freq.    2977.26  E(vib)   ...       0.00 
freq.    2977.57  E(vib)   ...       0.00 
freq.    2988.06  E(vib)   ...       0.00 
freq.    2988.14  E(vib)   ...       0.00 
freq.    2996.95  E(vib)   ...       0.00 
freq.    3004.22  E(vib)   ...       0.00 

------------
INNER ENERGY
------------

The inner energy is: U= E(el) + E(ZPE) + E(vib) + E(rot) + E(trans)
    E(el)   - is the total energy from the electronic structure calculation
              = E(kin-el) + E(nuc-el) + E(el-el) + E(nuc-nuc)
    E(ZPE)  - the the zero temperature vibrational energy from the frequency calculation
    E(vib)  - the the finite temperature correction to E(ZPE) due to population
              of excited vibrational states
    E(rot)  - is the rotational thermal energy
    E(trans)- is the translational thermal energy

Summary of contributions to the inner energy U:
Electronic energy                ...   -235.61339900 Eh
Zero point energy                ...      0.16440090 Eh     103.16 kcal/mol
Thermal vibrational correction   ...      0.00254755 Eh       1.60 kcal/mol
Thermal rotational correction    ...      0.00141627 Eh       0.89 kcal/mol
Thermal translational correction ...      0.00141627 Eh       0.89 kcal/mol
-----------------------------------------------------------------------
Total thermal energy                   -235.44361800 Eh


Summary of corrections to the electronic energy:
(perhaps to be used in another calculation)
Total thermal correction                  0.00538009 Eh       3.38 kcal/mol
Non-thermal (ZPE) correction              0.16440090 Eh     103.16 kcal/mol
-----------------------------------------------------------------------
Total correction                          0.16978099 Eh     106.54 kcal/mol


--------
ENTHALPY
--------

The enthalpy is H = U + kB*T
                kB is Boltzmann's constant
Total free energy                 ...   -235.44361800 Eh 
Thermal Enthalpy correction       ...      0.00094421 Eh       0.59 kcal/mol
-----------------------------------------------------------------------
Total Enthalpy                    ...   -235.44267380 Eh


Note: Rotational entropy computed according to Herzberg 
Infrared and Raman Spectra, Chapter V,1, Van Nostrand Reinhold, 1945 
Point Group:  C2v, Symmetry Number:   2  
Rotational constants in cm-1:     0.141209     0.136831     0.081751 

Vibrational entropy computed according to the QRRHO of S. Grimme
Chem.Eur.J. 2012 18 9955


-------
ENTROPY
-------

The entropy contributions are T*S = T*(S(el)+S(vib)+S(rot)+S(trans))
     S(el)   - electronic entropy
     S(vib)  - vibrational entropy
     S(rot)  - rotational entropy
     S(trans)- translational entropy
The entropies will be listed as mutliplied by the temperature to get
units of energy

Electronic entropy                ...      0.00000000 Eh      0.00 kcal/mol
Vibrational entropy               ...      0.00369759 Eh      2.32 kcal/mol
Rotational entropy                ...      0.01190162 Eh      7.47 kcal/mol
Translational entropy             ...      0.01862704 Eh     11.69 kcal/mol
-----------------------------------------------------------------------
Final entropy term                ...      0.03422625 Eh     21.48 kcal/mol

In case the symmetry of your molecule has not been determined correctly
or in case you have a reason to use a different symmetry number we print 
out the resulting rotational entropy values for sn=1,12 :
 --------------------------------------------------------
|  sn= 1 | S(rot)=       0.01255608 Eh      7.88 kcal/mol|
|  sn= 2 | S(rot)=       0.01190162 Eh      7.47 kcal/mol|
|  sn= 3 | S(rot)=       0.01151879 Eh      7.23 kcal/mol|
|  sn= 4 | S(rot)=       0.01124716 Eh      7.06 kcal/mol|
|  sn= 5 | S(rot)=       0.01103648 Eh      6.93 kcal/mol|
|  sn= 6 | S(rot)=       0.01086433 Eh      6.82 kcal/mol|
|  sn= 7 | S(rot)=       0.01071879 Eh      6.73 kcal/mol|
|  sn= 8 | S(rot)=       0.01059271 Eh      6.65 kcal/mol|
|  sn= 9 | S(rot)=       0.01048150 Eh      6.58 kcal/mol|
|  sn=10 | S(rot)=       0.01038202 Eh      6.51 kcal/mol|
|  sn=11 | S(rot)=       0.01029203 Eh      6.46 kcal/mol|
|  sn=12 | S(rot)=       0.01020988 Eh      6.41 kcal/mol|
 --------------------------------------------------------


-------------------
GIBBS FREE ENERGY
-------------------

The Gibbs free energy is G = H - T*S

Total enthalpy                    ...   -235.44267380 Eh 
Total entropy correction          ...     -0.03422625 Eh    -21.48 kcal/mol
-----------------------------------------------------------------------
Final Gibbs free energy         ...   -235.47690005 Eh

For completeness - the Gibbs free energy minus the electronic energy
G-E(el)                           ...      0.13649895 Eh     85.65 kcal/mol


Timings for individual modules:

Sum of individual times         ...      176.823 sec (=   2.947 min)
GTO integral calculation        ...        6.002 sec (=   0.100 min)   3.4 %
SCF iterations                  ...       61.085 sec (=   1.018 min)  34.5 %
SCF Gradient evaluation         ...       22.895 sec (=   0.382 min)  12.9 %
Geometry relaxation             ...        0.576 sec (=   0.010 min)   0.3 %
Analytical frequency calculation...       86.264 sec (=   1.438 min)  48.8 %
                             ****ORCA TERMINATED NORMALLY****
TOTAL RUN TIME: 0 days 0 hours 2 minutes 58 seconds 612 msec
