
                                 *****************
                                 * O   R   C   A *
                                 *****************

           --- An Ab Initio, DFT and Semiempirical electronic structure package ---

                  #######################################################
                  #                        -***-                        #
                  #          Department of theory and spectroscopy      #
                  #               Directorship: Frank Neese             #
                  #        Max Planck Institute fuer Kohlenforschung    #
                  #                Kaiser Wilhelm Platz 1               #
                  #                 D-45470 Muelheim/Ruhr               #
                  #                      Germany                        #
                  #                                                     #
                  #                  All rights reserved                #
                  #                        -***-                        #
                  #######################################################


                         Program Version 4.2.1 -  RELEASE  -


 With contributions from (in alphabetic order):
   Daniel Aravena         : Magnetic Suceptibility
   Michael Atanasov       : Ab Initio Ligand Field Theory (pilot matlab implementation)
   Alexander A. Auer      : GIAO ZORA, VPT2
   Ute Becker             : Parallelization
   Giovanni Bistoni       : ED, misc. LED, open-shell LED, HFLD
   Martin Brehm           : Molecular dynamics
   Dmytro Bykov           : SCF Hessian
   Vijay G. Chilkuri      : MRCI spin determinant printing, contributions to CSF-ICE
   Dipayan Datta          : RHF DLPNO-CCSD density
   Achintya Kumar Dutta   : EOM-CC, STEOM-CC
   Dmitry Ganyushin       : Spin-Orbit,Spin-Spin,Magnetic field MRCI
   Miquel Garcia          : C-PCM Hessian, Gaussian charge scheme
   Yang Guo               : DLPNO-NEVPT2, CIM, IAO-localization
   Andreas Hansen         : Spin unrestricted coupled pair/coupled cluster methods
   Benjamin Helmich-Paris : CASSCF linear response (MC-RPA)
   Lee Huntington         : MR-EOM, pCC
   Robert Izsak           : Overlap fitted RIJCOSX, COSX-SCS-MP3, EOM
   Christian Kollmar      : KDIIS, OOCD, Brueckner-CCSD(T), CCSD density
   Simone Kossmann        : Meta GGA functionals, TD-DFT gradient, OOMP2, MP2 Hessian
   Martin Krupicka        : AUTO-CI
   Lucas Lang             : DCDCAS
   Dagmar Lenk            : GEPOL surface, SMD
   Dimitrios Liakos       : Extrapolation schemes; Compound Job, initial MDCI parallelization
   Dimitrios Manganas     : Further ROCIS development; embedding schemes
   Dimitrios Pantazis     : SARC Basis sets
   Taras Petrenko         : DFT Hessian,TD-DFT gradient, ASA, ECA, R-Raman, ABS, FL, XAS/XES, NRVS
   Peter Pinski           : DLPNO-MP2, DLPNO-MP2 Gradient
   Christoph Reimann      : Effective Core Potentials
   Marius Retegan         : Local ZFS, SOC
   Christoph Riplinger    : Optimizer, TS searches, QM/MM, DLPNO-CCSD(T), (RO)-DLPNO pert. Triples
   Tobias Risthaus        : Range-separated hybrids, TD-DFT gradient, RPA, STAB
   Michael Roemelt        : Original ROCIS implementation
   Masaaki Saitow         : Open-shell DLPNO-CCSD energy and density
   Barbara Sandhoefer     : DKH picture change effects
   Avijit Sen             : IP-ROCIS
   Kantharuban Sivalingam : CASSCF convergence, NEVPT2, FIC-MRCI
   Bernardo de Souza      : ESD, SOC TD-DFT
   Georgi Stoychev        : AutoAux, RI-MP2 NMR
   Willem Van den Heuvel  : Paramagnetic NMR
   Boris Wezisla          : Elementary symmetry handling
   Frank Wennmohs         : Technical directorship


 We gratefully acknowledge several colleagues who have allowed us to
 interface, adapt or use parts of their codes:
   Stefan Grimme, W. Hujo, H. Kruse,             : VdW corrections, initial TS optimization,
                  C. Bannwarth                     DFT functionals, gCP, sTDA/sTD-DF
   Ed Valeev, F. Pavosevic, A. Kumar             : LibInt (2-el integral package), F12 methods
   Garnet Chan, S. Sharma, J. Yang, R. Olivares  : DMRG
   Ulf Ekstrom                                   : XCFun DFT Library
   Mihaly Kallay                                 : mrcc  (arbitrary order and MRCC methods)
   Andreas Klamt, Michael Diedenhofen            : otool_cosmo (COSMO solvation model)
   Jiri Pittner, Ondrej Demel                    : Mk-CCSD
   Frank Weinhold                                : gennbo (NPA and NBO analysis)
   Christopher J. Cramer and Donald G. Truhlar   : smd solvation model
   Lars Goerigk                                  : TD-DFT with DH, B97 family of functionals
   V. Asgeirsson, H. Jonsson                     : NEB implementation
   FAccTs GmbH                                   : IRC, NEB, NEB-TS, Multilevel, MM, QM/MM, CI optimization
   S Lehtola, MJT Oliveira, MAL Marques          : LibXC Library


 Your calculation uses the libint2 library for the computation of 2-el integrals
 For citations please refer to: http://libint.valeyev.net

 Your ORCA version has been built with support for libXC version: 4.2.3
 For citations please refer to: https://tddft.org/programs/libxc/

 This ORCA versions uses:
   CBLAS   interface :  Fast vector & matrix operations
   LAPACKE interface :  Fast linear algebra routines
   SCALAPACK package :  Parallel linear algebra routines


Your calculation utilizes the geometrical counterpoise correction gCP
Please cite in your paper:
H.Kruse, S. Grimme J.Chem.Phys., 136, (2012), 154101 
   

Your calculation utilizes the atom-pairwise dispersion correction
based on tight binding partial charges (D4)
Cite in your paper:
E.Caldeweyher, C.Bannwarth, S.Grimme, J.Chem.Phys., (2017), 147, 034112.
E.Caldeweyher, S.Ehlert, A.Hansen, H.Neugebauer, S.Grimme, J.Chem.Phys., (2018), in progress.
   

----- Orbital basis set information -----
Your calculation utilizes the basis: def2-SVP
   F. Weigend and R. Ahlrichs, Phys. Chem. Chem. Phys. 7, 3297 (2005).

----- AuxJ basis set information -----
Your calculation utilizes the auxiliary basis: def2/J
   F. Weigend, Phys. Chem. Chem. Phys. 8, 1057 (2006).

================================================================================
                                        WARNINGS
                       Please study these warnings very carefully!
================================================================================


WARNING: Geometry Optimization
  ===> : Switching off AutoStart
         For restart on a previous wavefunction, please use MOREAD

INFO   : the flag for use of LIBINT has been found!

================================================================================
                                       INPUT FILE
================================================================================
NAME = cyclooctatetraene.inp
|  1> ! revPBE D4 gCP(DFT/SVP) def2-SVP Opt Freq TightOpt TightSCF Grid4 FinalGrid5 LargePrint
|  2> 
|  3> %pal
|  4>  nprocs 6
|  5> end
|  6> 
|  7> *xyz 0 1
|  8> C  0.66858  1.57300  0.37458
|  9> C -0.66858  1.57300  0.37458
| 10> C  0.66858 -1.57300  0.37458
| 11> C -0.66858 -1.57300  0.37458
| 12> C  1.57300  0.66858 -0.37458
| 13> C -1.57300  0.66858 -0.37458
| 14> C  1.57300 -0.66858 -0.37458
| 15> C -1.57300 -0.66858 -0.37458
| 16> H  1.16787  2.34746  0.93210
| 17> H -1.16787  2.34746  0.93210
| 18> H  1.16787 -2.34746  0.93210
| 19> H -1.16787 -2.34746  0.93210
| 20> H  2.34746  1.16787 -0.93210
| 21> H -2.34746  1.16787 -0.93210
| 22> H  2.34746 -1.16787 -0.93210
| 23> H -2.34746 -1.16787 -0.93210
| 24> *
| 25> 
| 26>                          ****END OF INPUT****
================================================================================

                       *****************************
                       * Geometry Optimization Run *
                       *****************************

Geometry optimization settings:
Update method            Update   .... BFGS
Choice of coordinates    CoordSys .... Z-matrix Internals
Initial Hessian          InHess   .... Almoef's Model

Convergence Tolerances:
Energy Change            TolE     ....  1.0000e-06 Eh
Max. Gradient            TolMAXG  ....  1.0000e-04 Eh/bohr
RMS Gradient             TolRMSG  ....  3.0000e-05 Eh/bohr
Max. Displacement        TolMAXD  ....  1.0000e-03 bohr
RMS Displacement         TolRMSD  ....  6.0000e-04 bohr
Strict Convergence                ....  False
------------------------------------------------------------------------------
                        ORCA OPTIMIZATION COORDINATE SETUP
------------------------------------------------------------------------------

The optimization will be done in new redundant internal coordinates
Making redundant internal coordinates   ...  (new redundants) done
Evaluating the initial hessian          ...  (Almloef) done
Evaluating the coordinates              ...  done
Calculating the B-matrix                .... done
Calculating the G-matrix                .... done
Diagonalizing the G-matrix              .... done
The first mode is                       ....   30
The number of degrees of freedom        ....   42

    -----------------------------------------------------------------
                    Redundant Internal Coordinates


    -----------------------------------------------------------------
         Definition                    Initial Value    Approx d2E/dq
    -----------------------------------------------------------------
      1. B(C   1,C   0)                  1.3372         0.758650   
      2. B(C   3,C   2)                  1.3372         0.758650   
      3. B(C   4,C   0)                  1.4823         0.445135   
      4. B(C   5,C   1)                  1.4823         0.445135   
      5. B(C   6,C   4)                  1.3372         0.758650   
      6. B(C   6,C   2)                  1.4823         0.445135   
      7. B(C   7,C   3)                  1.4823         0.445135   
      8. B(C   7,C   5)                  1.3372         0.758650   
      9. B(H   8,C   0)                  1.0770         0.377729   
     10. B(H   9,C   1)                  1.0770         0.377729   
     11. B(H  10,C   2)                  1.0770         0.377729   
     12. B(H  11,C   3)                  1.0770         0.377729   
     13. B(H  12,C   4)                  1.0770         0.377729   
     14. B(H  13,C   5)                  1.0770         0.377729   
     15. B(H  14,C   6)                  1.0770         0.377729   
     16. B(H  15,C   7)                  1.0770         0.377729   
     17. A(C   1,C   0,H   8)          117.6195         0.368248   
     18. A(C   4,C   0,H   8)          114.6784         0.336504   
     19. A(C   1,C   0,C   4)          127.6003         0.424097   
     20. A(C   5,C   1,H   9)          114.6784         0.336504   
     21. A(C   0,C   1,H   9)          117.6195         0.368248   
     22. A(C   0,C   1,C   5)          127.6003         0.424097   
     23. A(C   3,C   2,C   6)          127.6003         0.424097   
     24. A(C   6,C   2,H  10)          114.6784         0.336504   
     25. A(C   3,C   2,H  10)          117.6195         0.368248   
     26. A(C   2,C   3,H  11)          117.6195         0.368248   
     27. A(C   2,C   3,C   7)          127.6003         0.424097   
     28. A(C   7,C   3,H  11)          114.6784         0.336504   
     29. A(C   6,C   4,H  12)          117.6195         0.368248   
     30. A(C   0,C   4,H  12)          114.6784         0.336504   
     31. A(C   0,C   4,C   6)          127.6003         0.424097   
     32. A(C   1,C   5,C   7)          127.6003         0.424097   
     33. A(C   7,C   5,H  13)          117.6195         0.368248   
     34. A(C   1,C   5,H  13)          114.6784         0.336504   
     35. A(C   4,C   6,H  14)          117.6195         0.368248   
     36. A(C   2,C   6,C   4)          127.6003         0.424097   
     37. A(C   2,C   6,H  14)          114.6784         0.336504   
     38. A(C   5,C   7,H  15)          117.6195         0.368248   
     39. A(C   3,C   7,H  15)          114.6784         0.336504   
     40. A(C   3,C   7,C   5)          127.6003         0.424097   
     41. D(C   5,C   1,C   0,H   8)    176.1134         0.041138   
     42. D(H   9,C   1,C   0,C   4)   -176.1134         0.041138   
     43. D(C   5,C   1,C   0,C   4)      0.0000         0.041138   
     44. D(H   9,C   1,C   0,H   8)      0.0000         0.041138   
     45. D(H  11,C   3,C   2,C   6)    176.1134         0.041138   
     46. D(C   7,C   3,C   2,C   6)      0.0000         0.041138   
     47. D(H  11,C   3,C   2,H  10)      0.0000         0.041138   
     48. D(C   7,C   3,C   2,H  10)   -176.1134         0.041138   
     49. D(H  12,C   4,C   0,H   8)    -46.0452         0.013513   
     50. D(H  12,C   4,C   0,C   1)    130.1651         0.013513   
     51. D(C   6,C   4,C   0,H   8)    130.1651         0.013513   
     52. D(C   6,C   4,C   0,C   1)    -53.6246         0.013513   
     53. D(C   7,C   5,C   1,H   9)   -130.1651         0.013513   
     54. D(C   7,C   5,C   1,C   0)     53.6246         0.013513   
     55. D(H  13,C   5,C   1,C   0)   -130.1651         0.013513   
     56. D(H  13,C   5,C   1,H   9)     46.0452         0.013513   
     57. D(H  14,C   6,C   4,H  12)      0.0000         0.041138   
     58. D(C   2,C   6,C   4,H  12)    176.1134         0.041138   
     59. D(C   2,C   6,C   4,C   0)      0.0000         0.041138   
     60. D(H  14,C   6,C   2,H  10)     46.0452         0.013513   
     61. D(H  14,C   6,C   2,C   3)   -130.1651         0.013513   
     62. D(H  14,C   6,C   4,C   0)   -176.1134         0.041138   
     63. D(C   4,C   6,C   2,H  10)   -130.1651         0.013513   
     64. D(C   4,C   6,C   2,C   3)     53.6246         0.013513   
     65. D(C   3,C   7,C   5,H  13)   -176.1134         0.041138   
     66. D(C   3,C   7,C   5,C   1)      0.0000         0.041138   
     67. D(H  15,C   7,C   3,H  11)    -46.0452         0.013513   
     68. D(H  15,C   7,C   3,C   2)    130.1651         0.013513   
     69. D(C   5,C   7,C   3,H  11)    130.1651         0.013513   
     70. D(H  15,C   7,C   5,C   1)    176.1134         0.041138   
     71. D(C   5,C   7,C   3,C   2)    -53.6246         0.013513   
     72. D(H  15,C   7,C   5,H  13)      0.0000         0.041138   
    -----------------------------------------------------------------

Number of atoms                         .... 16
Number of degrees of freedom            .... 72

         *************************************************************
         *                GEOMETRY OPTIMIZATION CYCLE   1            *
         *************************************************************
---------------------------------
CARTESIAN COORDINATES (ANGSTROEM)
---------------------------------
  C      0.668580    1.573000    0.374580
  C     -0.668580    1.573000    0.374580
  C      0.668580   -1.573000    0.374580
  C     -0.668580   -1.573000    0.374580
  C      1.573000    0.668580   -0.374580
  C     -1.573000    0.668580   -0.374580
  C      1.573000   -0.668580   -0.374580
  C     -1.573000   -0.668580   -0.374580
  H      1.167870    2.347460    0.932100
  H     -1.167870    2.347460    0.932100
  H      1.167870   -2.347460    0.932100
  H     -1.167870   -2.347460    0.932100
  H      2.347460    1.167870   -0.932100
  H     -2.347460    1.167870   -0.932100
  H      2.347460   -1.167870   -0.932100
  H     -2.347460   -1.167870   -0.932100

----------------------------
CARTESIAN COORDINATES (A.U.)
----------------------------
  NO LB      ZA    FRAG     MASS         X           Y           Z
   0 C     6.0000    0    12.011    1.263433    2.972539    0.707854
   1 C     6.0000    0    12.011   -1.263433    2.972539    0.707854
   2 C     6.0000    0    12.011    1.263433   -2.972539    0.707854
   3 C     6.0000    0    12.011   -1.263433   -2.972539    0.707854
   4 C     6.0000    0    12.011    2.972539    1.263433   -0.707854
   5 C     6.0000    0    12.011   -2.972539    1.263433   -0.707854
   6 C     6.0000    0    12.011    2.972539   -1.263433   -0.707854
   7 C     6.0000    0    12.011   -2.972539   -1.263433   -0.707854
   8 H     1.0000    0     1.008    2.206954    4.436057    1.761414
   9 H     1.0000    0     1.008   -2.206954    4.436057    1.761414
  10 H     1.0000    0     1.008    2.206954   -4.436057    1.761414
  11 H     1.0000    0     1.008   -2.206954   -4.436057    1.761414
  12 H     1.0000    0     1.008    4.436057    2.206954   -1.761414
  13 H     1.0000    0     1.008   -4.436057    2.206954   -1.761414
  14 H     1.0000    0     1.008    4.436057   -2.206954   -1.761414
  15 H     1.0000    0     1.008   -4.436057   -2.206954   -1.761414

--------------------------------
INTERNAL COORDINATES (ANGSTROEM)
--------------------------------
 C      0   0   0     0.000000000000     0.00000000     0.00000000
 C      1   0   0     1.337160000000     0.00000000     0.00000000
 C      1   2   0     3.146000000000    90.00000000     0.00000000
 C      3   1   2     1.337160000000    90.00000000     0.00000000
 C      1   2   3     1.482292743826   127.60030496    39.63603897
 C      2   1   3     1.482292743826   127.60030496   320.36396103
 C      5   1   2     1.337160000000   127.60030496   306.37536271
 C      6   2   1     1.337160000000   127.60030496    53.62463729
 H      1   2   3     1.076989947075   117.61950155   215.74944343
 H      2   1   3     1.076989947075   117.61950155   144.25055657
 H      3   1   2     1.076989947075   135.97995895   228.15379588
 H      4   3   1     1.076989947075   117.61950155   215.74944343
 H      5   1   2     1.076989947075   114.67835047   130.16506288
 H      6   2   1     1.076989947075   114.67835047   229.83493712
 H      7   5   1     1.076989947075   117.61950155   183.88659553
 H      8   6   2     1.076989947075   117.61950155   176.11340447

---------------------------
INTERNAL COORDINATES (A.U.)
---------------------------
 C      0   0   0     0.000000000000     0.00000000     0.00000000
 C      1   0   0     2.526866197234     0.00000000     0.00000000
 C      1   2   0     5.945078417316    90.00000000     0.00000000
 C      3   1   2     2.526866197234    90.00000000     0.00000000
 C      1   2   3     2.801127336130   127.60030496    39.63603897
 C      2   1   3     2.801127336130   127.60030496   320.36396103
 C      5   1   2     2.526866197234   127.60030496   306.37536271
 C      6   2   1     2.526866197234   127.60030496    53.62463729
 H      1   2   3     2.035216048958   117.61950155   215.74944343
 H      2   1   3     2.035216048958   117.61950155   144.25055657
 H      3   1   2     2.035216048958   135.97995895   228.15379588
 H      4   3   1     2.035216048958   117.61950155   215.74944343
 H      5   1   2     2.035216048958   114.67835047   130.16506288
 H      6   2   1     2.035216048958   114.67835047   229.83493712
 H      7   5   1     2.035216048958   117.61950155   183.88659553
 H      8   6   2     2.035216048958   117.61950155   176.11340447

---------------------
BASIS SET INFORMATION
---------------------
There are 2 groups of distinct atoms

 Group   1 Type C   : 7s4p1d contracted to 3s2p1d pattern {511/31/1}
 Group   2 Type H   : 4s1p contracted to 2s1p pattern {31/1}

Atom   0C    basis set group =>   1
Atom   1C    basis set group =>   1
Atom   2C    basis set group =>   1
Atom   3C    basis set group =>   1
Atom   4C    basis set group =>   1
Atom   5C    basis set group =>   1
Atom   6C    basis set group =>   1
Atom   7C    basis set group =>   1
Atom   8H    basis set group =>   2
Atom   9H    basis set group =>   2
Atom  10H    basis set group =>   2
Atom  11H    basis set group =>   2
Atom  12H    basis set group =>   2
Atom  13H    basis set group =>   2
Atom  14H    basis set group =>   2
Atom  15H    basis set group =>   2

-------------------------
BASIS SET IN INPUT FORMAT
-------------------------

 # Basis set for element : H 
 NewGTO H 
 S 3 
   1      13.0107010000      0.0334854848
   2       1.9622572000      0.2347218709
   3       0.4445379600      0.8137702853
 S 1 
   1       0.1219496200      1.0000000000
 P 1 
   1       0.8000000000      1.0000000000
  end;

 # Basis set for element : C 
 NewGTO C 
 S 5 
   1    1238.4016938000      0.0055173650
   2     186.2900499200      0.0410888285
   3      42.2511763460      0.1822538213
   4      11.6765579320      0.4682845944
   5       3.5930506482      0.4457581734
 S 1 
   1       0.4024514736      1.0000000000
 S 1 
   1       0.1309018267      1.0000000000
 P 3 
   1       9.4680970621      0.0568883320
   2       2.0103545142      0.3129405934
   3       0.5477100471      0.7606501651
 P 1 
   1       0.1526861379      1.0000000000
 D 1 
   1       0.8000000000      1.0000000000
  end;

---------------------------------
AUXILIARY/J BASIS SET INFORMATION
---------------------------------
There are 2 groups of distinct atoms

 Group   1 Type C   : 12s5p4d2f1g contracted to 6s4p3d1f1g pattern {711111/2111/211/2/1}
 Group   2 Type H   : 5s2p1d contracted to 3s1p1d pattern {311/2/1}

Atom   0C    basis set group =>   1
Atom   1C    basis set group =>   1
Atom   2C    basis set group =>   1
Atom   3C    basis set group =>   1
Atom   4C    basis set group =>   1
Atom   5C    basis set group =>   1
Atom   6C    basis set group =>   1
Atom   7C    basis set group =>   1
Atom   8H    basis set group =>   2
Atom   9H    basis set group =>   2
Atom  10H    basis set group =>   2
Atom  11H    basis set group =>   2
Atom  12H    basis set group =>   2
Atom  13H    basis set group =>   2
Atom  14H    basis set group =>   2
Atom  15H    basis set group =>   2

-------------------------------------
AUXILIARY/J BASIS SET IN INPUT FORMAT
-------------------------------------

 # Auxiliary/J basis set for element : H 
 NewAuxJGTO H 
 S 3 
   1      15.6752927000      0.1007184237
   2       3.6063578000      0.3404257499
   3       1.2080016000      0.6491996172
 S 1 
   1       0.4726794000      1.0000000000
 S 1 
   1       0.2018100000      1.0000000000
 P 2 
   1       2.0281365000      0.5596620919
   2       0.5358730000      0.5596620919
 D 1 
   1       2.2165124000      1.0000000000
  end;

 # Auxiliary/J basis set for element : C 
 NewAuxJGTO C 
 S 7 
   1    1861.0916331000      0.0134602335
   2     642.9939764000      0.0299160374
   3     235.1105725000      0.1008649584
   4      90.7028894000      0.2370970548
   5      36.7794552000      0.3924037254
   6      15.6046273000      0.3195862154
   7       6.8907294000      0.0530104441
 S 1 
   1       3.1478850000     -1.0000000000
 S 1 
   1       1.4777287000      1.0000000000
 S 1 
   1       0.7076466000      1.0000000000
 S 1 
   1       0.3430122000      1.0000000000
 S 1 
   1       0.1669453000      1.0000000000
 P 2 
   1      13.5472892000     -0.6769313712
   2       5.4669419000     -0.3779500978
 P 1 
   1       2.1751721000      1.0000000000
 P 1 
   1       0.8582194000      1.0000000000
 P 1 
   1       0.3376720000      1.0000000000
 D 2 
   1       5.9287253000     -0.3533329857
   2       1.9809209000     -0.7456525731
 D 1 
   1       0.8055417000     -1.0000000000
 D 1 
   1       0.3531244000     -1.0000000000
 F 2 
   1       1.6755626000      0.6311076882
   2       0.5997536000      0.4968166032
 G 1 
   1       1.0024600000     -1.0000000000
  end;



           ************************************************************
           *        Program running with 6 parallel MPI-processes     *
           *              working on a common directory               *
           ************************************************************
------------------------------------------------------------------------------
                           ORCA GTO INTEGRAL CALCULATION
                           -- RI-GTO INTEGRALS CHOSEN --
------------------------------------------------------------------------------

                         BASIS SET STATISTICS AND STARTUP INFO

Gaussian basis set:
 # of primitive gaussian shells          ...  136
 # of primitive gaussian functions       ...  248
 # of contracted shells                  ...   72
 # of contracted basis functions         ...  152
 Highest angular momentum                ...    2
 Maximum contraction depth               ...    5
Auxiliary gaussian basis set:
 # of primitive gaussian shells          ...  256
 # of primitive gaussian functions       ...  688
 # of contracted shells                  ...  160
 # of contracted aux-basis functions     ...  480
 Highest angular momentum                ...    4
 Maximum contraction depth               ...    7
Ratio of auxiliary to basis functions    ...  3.16
Integral package used                  ... LIBINT
 One Electron integrals                  ... done
 Ordering auxiliary basis shells         ... done
 Integral threshhold             Thresh  ...  2.500e-11
 Primitive cut-off               TCut    ...  2.500e-12
 Pre-screening matrix                    ... done
 Shell pair data                         ... 
 Ordering of the shell pairs             ... done (   0.000 sec) 2560 of 2628 pairs
 Determination of significant pairs      ... done (   0.000 sec)
 Creation of shell pair data             ... done (   0.000 sec)
 Storage of shell pair data              ... done (   0.051 sec)
 Shell pair data done in (   0.052 sec)
 Computing two index integrals           ... done
 Cholesky decomposition of the V-matrix  ... done


Timings:
 Total evaluation time                   ...   0.266 sec (  0.004 min)
 One electron matrix time                ...   0.061 sec (  0.001 min) = 22.7%
 Schwartz matrix evaluation time         ...   0.103 sec (  0.002 min) = 38.7%
 Two index repulsion integral time       ...   0.010 sec (  0.000 min) =  3.9%
 Cholesky decomposition of V             ...   0.021 sec (  0.000 min) =  7.7%
 Three index repulsion integral time     ...   0.000 sec (  0.000 min) =  0.0%



           ************************************************************
           *        Program running with 6 parallel MPI-processes     *
           *              working on a common directory               *
           ************************************************************
-------------------------------------------------------------------------------
                                 ORCA SCF
-------------------------------------------------------------------------------

------------
SCF SETTINGS
------------
Hamiltonian:
 Density Functional     Method          .... DFT(GTOs)
 Exchange Functional    Exchange        .... PBE
   PBE kappa parameter   XKappa         ....  1.245000
   PBE mue parameter    XMuePBE         ....  0.219520
 Correlation Functional Correlation     .... PBE
   PBE beta parameter  CBetaPBE         ....  0.066725
 LDA part of GGA corr.  LDAOpt          .... PW91-LDA
 Gradients option       PostSCFGGA      .... off
   Density functional embedding theory  .... OFF
   NL short-range parameter             ....  3.700000
 RI-approximation to the Coulomb term is turned on
   Number of auxiliary basis functions  .... 480


General Settings:
 Integral files         IntName         .... cyclooctatetraene
 Hartree-Fock type      HFTyp           .... RHF
 Total Charge           Charge          ....    0
 Multiplicity           Mult            ....    1
 Number of Electrons    NEL             ....   56
 Basis Dimension        Dim             ....  152
 Nuclear Repulsion      ENuc            ....    323.2474208142 Eh

Convergence Acceleration:
 DIIS                   CNVDIIS         .... on
   Start iteration      DIISMaxIt       ....    12
   Startup error        DIISStart       ....  0.200000
   # of expansion vecs  DIISMaxEq       ....     5
   Bias factor          DIISBfac        ....   1.050
   Max. coefficient     DIISMaxC        ....  10.000
 Newton-Raphson         CNVNR           .... off
 SOSCF                  CNVSOSCF        .... on
   Start iteration      SOSCFMaxIt      ....   150
   Startup grad/error   SOSCFStart      ....  0.003300
 Level Shifting         CNVShift        .... on
   Level shift para.    LevelShift      ....    0.2500
   Turn off err/grad.   ShiftErr        ....    0.0010
 Zerner damping         CNVZerner       .... off
 Static damping         CNVDamp         .... on
   Fraction old density DampFac         ....    0.7000
   Max. Damping (<1)    DampMax         ....    0.9800
   Min. Damping (>=0)   DampMin         ....    0.0000
   Turn off err/grad.   DampErr         ....    0.1000
 Fernandez-Rico         CNVRico         .... off

SCF Procedure:
 Maximum # iterations   MaxIter         ....   125
 SCF integral mode      SCFMode         .... Direct
   Integral package                     .... LIBINT
 Reset frequency        DirectResetFreq ....    20
 Integral Threshold     Thresh          ....  2.500e-11 Eh
 Primitive CutOff       TCut            ....  2.500e-12 Eh

Convergence Tolerance:
 Convergence Check Mode ConvCheckMode   .... Total+1el-Energy
 Convergence forced     ConvForced      .... 0
 Energy Change          TolE            ....  1.000e-08 Eh
 1-El. energy change                    ....  1.000e-05 Eh
 Orbital Gradient       TolG            ....  1.000e-05
 Orbital Rotation angle TolX            ....  1.000e-05
 DIIS Error             TolErr          ....  5.000e-07


Diagonalization of the overlap matrix:
Smallest eigenvalue                        ... 6.275e-04
Time for diagonalization                   ...    0.018 sec
Threshold for overlap eigenvalues          ... 1.000e-08
Number of eigenvalues below threshold      ... 0
Time for construction of square roots      ...    0.008 sec
Total time needed                          ...    0.027 sec

-------------------
DFT GRID GENERATION
-------------------

General Integration Accuracy     IntAcc      ...  4.670
Radial Grid Type                 RadialGrid  ... Gauss-Chebyshev
Angular Grid (max. acc.)         AngularGrid ... Lebedev-302
Angular grid pruning method      GridPruning ... 3 (G Style)
Weight generation scheme         WeightScheme... Becke
Basis function cutoff            BFCut       ...    1.0000e-11
Integration weight cutoff        WCut        ...    1.0000e-14
Grids for H and He will be reduced by one unit

# of grid points (after initial pruning)     ...  76848 (   0.0 sec)
# of grid points (after weights+screening)   ...  70056 (   0.1 sec)
nearest neighbour list constructed           ...    0.0 sec
Grid point re-assignment to atoms done       ...    0.0 sec
Grid point division into batches done        ...    0.3 sec
Reduced shell lists constructed in    0.4 sec

Total number of grid points                  ...    70056
Total number of batches                      ...     1096
Average number of points per batch           ...       63
Average number of grid points per atom       ...     4378
Average number of shells per batch           ...    60.72 (84.34%)
Average number of basis functions per batch  ...   130.64 (85.94%)
Average number of large shells per batch     ...    48.78 (80.33%)
Average number of large basis fcns per batch ...   101.31 (77.55%)
Maximum spatial batch extension              ...   2.87,  4.16,  3.89 au
Average spatial batch extension              ...   0.19,  0.21,  0.21 au

Time for grid setup =    0.685 sec

------------------------------
INITIAL GUESS: MODEL POTENTIAL
------------------------------
Loading Hartree-Fock densities                     ... done
Calculating cut-offs                               ... done
Setting up the integral package                    ... done
Initializing the effective Hamiltonian             ... done
Starting the Coulomb interaction                   ... done (   0.0 sec)
Reading the grid                                   ... done
Mapping shells                                     ... done
Starting the XC term evaluation                    ... done (   0.3 sec)
  promolecular density results
     # of electrons  =     55.996180379
     EX              =    -43.524000866
     EC              =     -1.822005888
     EX+EC           =    -45.346006755
Transforming the Hamiltonian                       ... done (   0.0 sec)
Diagonalizing the Hamiltonian                      ... done (   0.0 sec)
Back transforming the eigenvectors                 ... done (   0.0 sec)
Now organizing SCF variables                       ... done
                      ------------------
                      INITIAL GUESS DONE (   1.2 sec)
                      ------------------
----------------------
INITIAL GUESS ORBITALS
----------------------
                      0         1         2         3         4         5   
                 -10.08202 -10.08202 -10.08191 -10.08188 -10.08150 -10.08150
                   2.00000   2.00000   2.00000   2.00000   2.00000   2.00000
                  --------  --------  --------  --------  --------  --------
  0C   1s        -0.487005 -0.083873 -0.349721 -0.349410 -0.349225 -0.348931
  0C   2s        -0.022823 -0.003193 -0.013732 -0.015857 -0.019556 -0.020102
  0C   3s         0.007675 -0.006335  0.005665  0.006643  0.018108  0.025055
  0C   1pz       -0.000200 -0.000197 -0.000544  0.000267 -0.000327  0.000064
  0C   1px       -0.001055  0.000434 -0.000363 -0.001293  0.001741  0.000930
  0C   1py        0.000075 -0.000431 -0.000869  0.000076 -0.000364  0.000047
  0C   2pz        0.000892 -0.004552  0.000024  0.000072 -0.003712 -0.002853
  0C   2px       -0.004092  0.005382  0.000053 -0.001504 -0.004812  0.002328
  0C   2py       -0.000379 -0.001949  0.000841 -0.000357 -0.003713 -0.003531
  0C   1dz2       0.000130 -0.000006  0.000172  0.000163  0.000535  0.000957
  0C   1dxz      -0.000071 -0.000593 -0.000425  0.000374 -0.000644  0.000382
  0C   1dyz      -0.000862  0.000346 -0.000212 -0.000837 -0.000368 -0.001199
  0C   1dx2y2     0.000084  0.000273  0.000071 -0.000043 -0.000674 -0.000928
  0C   1dxy      -0.000208 -0.000606 -0.000416  0.000198 -0.000483  0.000318
  1C   1s        -0.492157 -0.044610 -0.349721 -0.349410  0.349225  0.348931
  1C   2s        -0.022874 -0.002803 -0.013732 -0.015857  0.019556  0.020102
  1C   3s         0.005781  0.008100  0.005665  0.006643 -0.018108 -0.025055
  1C   1pz       -0.000244  0.000139 -0.000544  0.000267  0.000327 -0.000064
  1C   1px        0.000907  0.000692  0.000363  0.001293  0.001741  0.000930
  1C   1py       -0.000039  0.000436 -0.000869  0.000076  0.000364 -0.000047
  1C   2pz       -0.000312  0.004628  0.000024  0.000072  0.003712  0.002853
  1C   2px        0.002565  0.006256 -0.000053  0.001504 -0.004812  0.002328
  1C   2py       -0.000869  0.001785  0.000841 -0.000357  0.003713  0.003531
  1C   1dz2       0.000125  0.000039  0.000172  0.000163 -0.000535 -0.000957
  1C   1dxz       0.000221 -0.000554  0.000425 -0.000374 -0.000644  0.000382
  1C   1dyz      -0.000744 -0.000557 -0.000212 -0.000837  0.000368  0.001199
  1C   1dx2y2     0.000152 -0.000242  0.000071 -0.000043  0.000674  0.000928
  1C   1dxy       0.000358 -0.000532  0.000416 -0.000198 -0.000483  0.000318
  2C   1s         0.492157  0.044610 -0.349721 -0.349410  0.349225  0.348931
  2C   2s         0.022874  0.002803 -0.013732 -0.015857  0.019556  0.020102
  2C   3s        -0.005781 -0.008100  0.005665  0.006643 -0.018108 -0.025055
  2C   1pz        0.000244 -0.000139 -0.000544  0.000267  0.000327 -0.000064
  2C   1px        0.000907  0.000692 -0.000363 -0.001293 -0.001741 -0.000930
  2C   1py       -0.000039  0.000436  0.000869 -0.000076 -0.000364  0.000047
  2C   2pz        0.000312 -0.004628  0.000024  0.000072  0.003712  0.002853
  2C   2px        0.002565  0.006256  0.000053 -0.001504  0.004812 -0.002328
  2C   2py       -0.000869  0.001785 -0.000841  0.000357 -0.003713 -0.003531
  2C   1dz2      -0.000125 -0.000039  0.000172  0.000163 -0.000535 -0.000957
  2C   1dxz       0.000221 -0.000554 -0.000425  0.000374  0.000644 -0.000382
  2C   1dyz      -0.000744 -0.000557  0.000212  0.000837 -0.000368 -0.001199
  2C   1dx2y2    -0.000152  0.000242  0.000071 -0.000043  0.000674  0.000928
  2C   1dxy      -0.000358  0.000532  0.000416 -0.000198 -0.000483  0.000318
  3C   1s         0.487005  0.083873 -0.349721 -0.349410 -0.349225 -0.348931
  3C   2s         0.022823  0.003193 -0.013732 -0.015857 -0.019556 -0.020102
  3C   3s        -0.007675  0.006335  0.005665  0.006643  0.018108  0.025055
  3C   1pz        0.000200  0.000197 -0.000544  0.000267 -0.000327  0.000064
  3C   1px       -0.001055  0.000434  0.000363  0.001293 -0.001741 -0.000930
  3C   1py        0.000075 -0.000431  0.000869 -0.000076  0.000364 -0.000047
  3C   2pz       -0.000892  0.004552  0.000024  0.000072 -0.003712 -0.002853
  3C   2px       -0.004092  0.005382 -0.000053  0.001504  0.004812 -0.002328
  3C   2py       -0.000379 -0.001949 -0.000841  0.000357  0.003713  0.003531
  3C   1dz2      -0.000130  0.000006  0.000172  0.000163  0.000535  0.000957
  3C   1dxz      -0.000071 -0.000593  0.000425 -0.000374  0.000644 -0.000382
  3C   1dyz      -0.000862  0.000346  0.000212  0.000837  0.000368  0.001199
  3C   1dx2y2    -0.000084 -0.000273  0.000071 -0.000043 -0.000674 -0.000928
  3C   1dxy       0.000208  0.000606 -0.000416  0.000198 -0.000483  0.000318
  4C   1s         0.044610 -0.492157 -0.349721  0.349410 -0.349225  0.348931
  4C   2s         0.002803 -0.022874 -0.013732  0.015857 -0.019556  0.020102
  4C   3s        -0.008100  0.005781  0.005665 -0.006643  0.018108 -0.025055
  4C   1pz        0.000139  0.000244  0.000544  0.000267  0.000327  0.000064
  4C   1px       -0.000436 -0.000039 -0.000869 -0.000076 -0.000364 -0.000047
  4C   1py        0.000692 -0.000907 -0.000363  0.001293  0.001741 -0.000930
  4C   2pz        0.004628  0.000312 -0.000024  0.000072  0.003712 -0.002853
  4C   2px       -0.001785 -0.000869  0.000841  0.000357 -0.003713  0.003531
  4C   2py        0.006256 -0.002565  0.000053  0.001504 -0.004812 -0.002328
  4C   1dz2      -0.000039  0.000125  0.000172 -0.000163  0.000535 -0.000957
  4C   1dxz      -0.000557  0.000744  0.000212 -0.000837  0.000368 -0.001199
  4C   1dyz       0.000554  0.000221  0.000425  0.000374  0.000644  0.000382
  4C   1dx2y2    -0.000242 -0.000152 -0.000071 -0.000043  0.000674 -0.000928
  4C   1dxy      -0.000532 -0.000358 -0.000416 -0.000198 -0.000483 -0.000318
  5C   1s        -0.083873  0.487005 -0.349721  0.349410  0.349225 -0.348931
  5C   2s        -0.003193  0.022823 -0.013732  0.015857  0.019556 -0.020102
  5C   3s        -0.006335 -0.007675  0.005665 -0.006643 -0.018108  0.025055
  5C   1pz        0.000197 -0.000200  0.000544  0.000267 -0.000327 -0.000064
  5C   1px        0.000431  0.000075  0.000869  0.000076 -0.000364 -0.000047
  5C   1py        0.000434  0.001055 -0.000363  0.001293 -0.001741  0.000930
  5C   2pz        0.004552  0.000892 -0.000024  0.000072 -0.003712  0.002853
  5C   2px        0.001949 -0.000379 -0.000841 -0.000357 -0.003713  0.003531
  5C   2py        0.005382  0.004092  0.000053  0.001504  0.004812  0.002328
  5C   1dz2      -0.000006 -0.000130  0.000172 -0.000163 -0.000535  0.000957
  5C   1dxz       0.000346  0.000862 -0.000212  0.000837  0.000368 -0.001199
  5C   1dyz       0.000593 -0.000071  0.000425  0.000374 -0.000644 -0.000382
  5C   1dx2y2    -0.000273  0.000084 -0.000071 -0.000043 -0.000674  0.000928
  5C   1dxy       0.000606 -0.000208  0.000416  0.000198 -0.000483 -0.000318
  6C   1s         0.083873 -0.487005 -0.349721  0.349410  0.349225 -0.348931
  6C   2s         0.003193 -0.022823 -0.013732  0.015857  0.019556 -0.020102
  6C   3s         0.006335  0.007675  0.005665 -0.006643 -0.018108  0.025055
  6C   1pz       -0.000197  0.000200  0.000544  0.000267 -0.000327 -0.000064
  6C   1px        0.000431  0.000075 -0.000869 -0.000076  0.000364  0.000047
  6C   1py        0.000434  0.001055  0.000363 -0.001293  0.001741 -0.000930
  6C   2pz       -0.004552 -0.000892 -0.000024  0.000072 -0.003712  0.002853
  6C   2px        0.001949 -0.000379  0.000841  0.000357  0.003713 -0.003531
  6C   2py        0.005382  0.004092 -0.000053 -0.001504 -0.004812 -0.002328
  6C   1dz2       0.000006  0.000130  0.000172 -0.000163 -0.000535  0.000957
  6C   1dxz       0.000346  0.000862  0.000212 -0.000837 -0.000368  0.001199
  6C   1dyz       0.000593 -0.000071 -0.000425 -0.000374  0.000644  0.000382
  6C   1dx2y2     0.000273 -0.000084 -0.000071 -0.000043 -0.000674  0.000928
  6C   1dxy      -0.000606  0.000208  0.000416  0.000198 -0.000483 -0.000318
  7C   1s        -0.044610  0.492157 -0.349721  0.349410 -0.349225  0.348931
  7C   2s        -0.002803  0.022874 -0.013732  0.015857 -0.019556  0.020102
  7C   3s         0.008100 -0.005781  0.005665 -0.006643  0.018108 -0.025055
  7C   1pz       -0.000139 -0.000244  0.000544  0.000267  0.000327  0.000064
  7C   1px       -0.000436 -0.000039  0.000869  0.000076  0.000364  0.000047
  7C   1py        0.000692 -0.000907  0.000363 -0.001293 -0.001741  0.000930
  7C   2pz       -0.004628 -0.000312 -0.000024  0.000072  0.003712 -0.002853
  7C   2px       -0.001785 -0.000869 -0.000841 -0.000357  0.003713 -0.003531
  7C   2py        0.006256 -0.002565 -0.000053 -0.001504  0.004812  0.002328
  7C   1dz2       0.000039 -0.000125  0.000172 -0.000163  0.000535 -0.000957
  7C   1dxz      -0.000557  0.000744 -0.000212  0.000837 -0.000368  0.001199
  7C   1dyz       0.000554  0.000221 -0.000425 -0.000374 -0.000644 -0.000382
  7C   1dx2y2     0.000242  0.000152 -0.000071 -0.000043  0.000674 -0.000928
  7C   1dxy       0.000532  0.000358 -0.000416 -0.000198 -0.000483 -0.000318
  8H   1s         0.002716  0.001001  0.001457  0.001813  0.002812  0.001699
  8H   2s        -0.002469  0.000753 -0.002450 -0.001651 -0.001271 -0.003012
  8H   1pz       -0.000843  0.000207 -0.000342 -0.000585 -0.000504 -0.000620
  8H   1px       -0.000196 -0.000408 -0.000278 -0.000027 -0.000780 -0.000742
  8H   1py       -0.000965 -0.000146 -0.000588 -0.000786 -0.000752 -0.000873
  9H   1s         0.002883 -0.000267  0.001457  0.001813 -0.002812 -0.001699
  9H   2s        -0.002191 -0.001365 -0.002450 -0.001651  0.001271  0.003012
  9H   1pz       -0.000761 -0.000417 -0.000342 -0.000585  0.000504  0.000620
  9H   1px        0.000295 -0.000344  0.000278  0.000027 -0.000780 -0.000742
  9H   1py       -0.000970 -0.000108 -0.000588 -0.000786  0.000752  0.000873
 10H   1s        -0.002883  0.000267  0.001457  0.001813 -0.002812 -0.001699
 10H   2s         0.002191  0.001365 -0.002450 -0.001651  0.001271  0.003012
 10H   1pz        0.000761  0.000417 -0.000342 -0.000585  0.000504  0.000620
 10H   1px        0.000295 -0.000344 -0.000278 -0.000027  0.000780  0.000742
 10H   1py       -0.000970 -0.000108  0.000588  0.000786 -0.000752 -0.000873
 11H   1s        -0.002716 -0.001001  0.001457  0.001813  0.002812  0.001699
 11H   2s         0.002469 -0.000753 -0.002450 -0.001651 -0.001271 -0.003012
 11H   1pz        0.000843 -0.000207 -0.000342 -0.000585 -0.000504 -0.000620
 11H   1px       -0.000196 -0.000408  0.000278  0.000027  0.000780  0.000742
 11H   1py       -0.000965 -0.000146  0.000588  0.000786  0.000752  0.000873
 12H   1s         0.000267  0.002883  0.001457 -0.001813  0.002812 -0.001699
 12H   2s         0.001365 -0.002191 -0.002450  0.001651 -0.001271  0.003012
 12H   1pz       -0.000417  0.000761  0.000342 -0.000585  0.000504 -0.000620
 12H   1px        0.000108 -0.000970 -0.000588  0.000786 -0.000752  0.000873
 12H   1py       -0.000344 -0.000295 -0.000278  0.000027 -0.000780  0.000742
 13H   1s         0.001001 -0.002716  0.001457 -0.001813 -0.002812  0.001699
 13H   2s         0.000753  0.002469 -0.002450  0.001651  0.001271 -0.003012
 13H   1pz       -0.000207 -0.000843  0.000342 -0.000585 -0.000504  0.000620
 13H   1px        0.000146 -0.000965  0.000588 -0.000786 -0.000752  0.000873
 13H   1py       -0.000408  0.000196 -0.000278  0.000027  0.000780 -0.000742
 14H   1s        -0.001001  0.002716  0.001457 -0.001813 -0.002812  0.001699
 14H   2s        -0.000753 -0.002469 -0.002450  0.001651  0.001271 -0.003012
 14H   1pz        0.000207  0.000843  0.000342 -0.000585 -0.000504  0.000620
 14H   1px        0.000146 -0.000965 -0.000588  0.000786  0.000752 -0.000873
 14H   1py       -0.000408  0.000196  0.000278 -0.000027 -0.000780  0.000742
 15H   1s        -0.000267 -0.002883  0.001457 -0.001813  0.002812 -0.001699
 15H   2s        -0.001365  0.002191 -0.002450  0.001651 -0.001271  0.003012
 15H   1pz        0.000417 -0.000761  0.000342 -0.000585  0.000504 -0.000620
 15H   1px        0.000108 -0.000970  0.000588 -0.000786  0.000752 -0.000873
 15H   1py       -0.000344 -0.000295  0.000278 -0.000027  0.000780 -0.000742
                      6         7         8         9        10        11   
                 -10.08144 -10.08144  -0.89480  -0.84687  -0.84687  -0.78240
                   2.00000   2.00000   2.00000   2.00000   2.00000   2.00000
                  --------  --------  --------  --------  --------  --------
  0C   1s         0.479275  0.118723  0.106872 -0.139346 -0.057229  0.098681
  0C   2s         0.026065  0.005599 -0.214269  0.285122  0.116188 -0.205745
  0C   3s        -0.024088  0.002331 -0.035345  0.028689  0.031436 -0.025415
  0C   1pz        0.000089  0.000656  0.017655 -0.006588 -0.019393 -0.024405
  0C   1px       -0.001680 -0.001398  0.039970 -0.084290  0.037108  0.105543
  0C   1py        0.000435  0.000740  0.026112  0.000579 -0.028216 -0.039587
  0C   2pz        0.003837 -0.000726  0.006404  0.003413 -0.018059 -0.008527
  0C   2px       -0.003078  0.001671  0.006113 -0.019885  0.018547  0.023970
  0C   2py        0.003667 -0.000793  0.008172  0.006411 -0.021545 -0.010095
  0C   1dz2      -0.001157 -0.000147  0.005217 -0.006027 -0.001332  0.004245
  0C   1dxz      -0.000085  0.000524  0.002050 -0.001495 -0.003155  0.000139
  0C   1dyz       0.001207 -0.000098 -0.004109  0.003388  0.003815 -0.000473
  0C   1dx2y2     0.001201  0.000448 -0.005718  0.009963 -0.001171 -0.008239
  0C   1dxy       0.000078  0.000585  0.002451 -0.001580 -0.004157  0.000097
  1C   1s        -0.468461 -0.156026  0.106872 -0.147876  0.028724  0.098681
  1C   2s        -0.025018 -0.009210 -0.214269  0.302397 -0.057880 -0.205745
  1C   3s         0.019107  0.014853 -0.035345  0.034308 -0.025184 -0.025415
  1C   1pz       -0.000426  0.000507  0.017655 -0.010271  0.017720 -0.024405
  1C   1px       -0.002167  0.000282 -0.039970  0.075352  0.052951 -0.105543
  1C   1py       -0.000763  0.000393  0.026112 -0.004978  0.027780 -0.039587
  1C   2pz       -0.002854 -0.002666  0.006404 -0.000203  0.018377 -0.008527
  1C   2px       -0.001707 -0.003058 -0.006113  0.015852  0.022093 -0.023970
  1C   2py       -0.002674 -0.002632  0.008172  0.002051  0.022385 -0.010095
  1C   1dz2       0.001056  0.000495  0.005217 -0.006172  0.000121  0.004245
  1C   1dxz       0.000208 -0.000488 -0.002050  0.002086 -0.002800 -0.000139
  1C   1dyz      -0.000967 -0.000729 -0.004109  0.004071 -0.003075 -0.000473
  1C   1dx2y2    -0.001255 -0.000264 -0.005718  0.009538  0.003106 -0.008239
  1C   1dxy       0.000379 -0.000453 -0.002451  0.002367 -0.003766 -0.000097
  2C   1s         0.468461  0.156026  0.106872  0.147876 -0.028724  0.098681
  2C   2s         0.025018  0.009210 -0.214269 -0.302397  0.057880 -0.205745
  2C   3s        -0.019107 -0.014853 -0.035345 -0.034308  0.025184 -0.025415
  2C   1pz        0.000426 -0.000507  0.017655  0.010271 -0.017720 -0.024405
  2C   1px       -0.002167  0.000282  0.039970  0.075352  0.052951  0.105543
  2C   1py       -0.000763  0.000393 -0.026112 -0.004978  0.027780  0.039587
  2C   2pz        0.002854  0.002666  0.006404  0.000203 -0.018377 -0.008527
  2C   2px       -0.001707 -0.003058  0.006113  0.015852  0.022093  0.023970
  2C   2py       -0.002674 -0.002632 -0.008172  0.002051  0.022385  0.010095
  2C   1dz2      -0.001056 -0.000495  0.005217  0.006172 -0.000121  0.004245
  2C   1dxz       0.000208 -0.000488  0.002050  0.002086 -0.002800  0.000139
  2C   1dyz      -0.000967 -0.000729  0.004109  0.004071 -0.003075  0.000473
  2C   1dx2y2     0.001255  0.000264 -0.005718 -0.009538 -0.003106 -0.008239
  2C   1dxy      -0.000379  0.000453 -0.002451 -0.002367  0.003766 -0.000097
  3C   1s        -0.479275 -0.118723  0.106872  0.139346  0.057229  0.098681
  3C   2s        -0.026065 -0.005599 -0.214269 -0.285122 -0.116188 -0.205745
  3C   3s         0.024088 -0.002331 -0.035345 -0.028689 -0.031436 -0.025415
  3C   1pz       -0.000089 -0.000656  0.017655  0.006588  0.019393 -0.024405
  3C   1px       -0.001680 -0.001398 -0.039970 -0.084290  0.037108 -0.105543
  3C   1py        0.000435  0.000740 -0.026112  0.000579 -0.028216  0.039587
  3C   2pz       -0.003837  0.000726  0.006404 -0.003413  0.018059 -0.008527
  3C   2px       -0.003078  0.001671 -0.006113 -0.019885  0.018547 -0.023970
  3C   2py        0.003667 -0.000793 -0.008172  0.006411 -0.021545  0.010095
  3C   1dz2       0.001157  0.000147  0.005217  0.006027  0.001332  0.004245
  3C   1dxz      -0.000085  0.000524 -0.002050 -0.001495 -0.003155 -0.000139
  3C   1dyz       0.001207 -0.000098  0.004109  0.003388  0.003815  0.000473
  3C   1dx2y2    -0.001201 -0.000448 -0.005718 -0.009963  0.001171 -0.008239
  3C   1dxy      -0.000078 -0.000585  0.002451  0.001580  0.004157  0.000097
  4C   1s        -0.156026  0.468461  0.106872 -0.028724 -0.147876 -0.098681
  4C   2s        -0.009210  0.025018 -0.214269  0.057880  0.302397  0.205745
  4C   3s         0.014853 -0.019107 -0.035345  0.025184  0.034308  0.025415
  4C   1pz       -0.000507 -0.000426 -0.017655  0.017720  0.010271 -0.024405
  4C   1px        0.000393  0.000763  0.026112 -0.027780 -0.004978  0.039587
  4C   1py       -0.000282 -0.002167  0.039970  0.052951 -0.075352 -0.105543
  4C   2pz        0.002666 -0.002854 -0.006404  0.018377  0.000203 -0.008527
  4C   2px       -0.002632  0.002674  0.008172 -0.022385  0.002051  0.010095
  4C   2py        0.003058 -0.001707  0.006113  0.022093 -0.015852 -0.023970
  4C   1dz2       0.000495 -0.001056  0.005217 -0.000121 -0.006172 -0.004245
  4C   1dxz       0.000729 -0.000967  0.004109 -0.003075 -0.004071 -0.000473
  4C   1dyz      -0.000488 -0.000208 -0.002050  0.002800  0.002086  0.000139
  4C   1dx2y2     0.000264 -0.001255  0.005718  0.003106 -0.009538 -0.008239
  4C   1dxy       0.000453  0.000379  0.002451 -0.003766 -0.002367 -0.000097
  5C   1s        -0.118723  0.479275  0.106872 -0.057229  0.139346 -0.098681
  5C   2s        -0.005599  0.026065 -0.214269  0.116188 -0.285122  0.205745
  5C   3s        -0.002331 -0.024088 -0.035345  0.031436 -0.028689  0.025415
  5C   1pz        0.000656 -0.000089 -0.017655  0.019393 -0.006588 -0.024405
  5C   1px        0.000740 -0.000435 -0.026112  0.028216  0.000579 -0.039587
  5C   1py        0.001398 -0.001680  0.039970  0.037108  0.084290 -0.105543
  5C   2pz       -0.000726 -0.003837 -0.006404  0.018059  0.003413 -0.008527
  5C   2px       -0.000793 -0.003667 -0.008172  0.021545  0.006411 -0.010095
  5C   2py       -0.001671 -0.003078  0.006113  0.018547  0.019885 -0.023970
  5C   1dz2       0.000147 -0.001157  0.005217 -0.001332  0.006027 -0.004245
  5C   1dxz       0.000098  0.001207 -0.004109  0.003815 -0.003388  0.000473
  5C   1dyz       0.000524  0.000085 -0.002050  0.003155 -0.001495  0.000139
  5C   1dx2y2     0.000448 -0.001201  0.005718  0.001171  0.009963 -0.008239
  5C   1dxy       0.000585 -0.000078 -0.002451  0.004157 -0.001580  0.000097
  6C   1s         0.118723 -0.479275  0.106872  0.057229 -0.139346 -0.098681
  6C   2s         0.005599 -0.026065 -0.214269 -0.116188  0.285122  0.205745
  6C   3s         0.002331  0.024088 -0.035345 -0.031436  0.028689  0.025415
  6C   1pz       -0.000656  0.000089 -0.017655 -0.019393  0.006588 -0.024405
  6C   1px        0.000740 -0.000435  0.026112  0.028216  0.000579  0.039587
  6C   1py        0.001398 -0.001680 -0.039970  0.037108  0.084290  0.105543
  6C   2pz        0.000726  0.003837 -0.006404 -0.018059 -0.003413 -0.008527
  6C   2px       -0.000793 -0.003667  0.008172  0.021545  0.006411  0.010095
  6C   2py       -0.001671 -0.003078 -0.006113  0.018547  0.019885  0.023970
  6C   1dz2      -0.000147  0.001157  0.005217  0.001332 -0.006027 -0.004245
  6C   1dxz       0.000098  0.001207  0.004109  0.003815 -0.003388 -0.000473
  6C   1dyz       0.000524  0.000085  0.002050  0.003155 -0.001495 -0.000139
  6C   1dx2y2    -0.000448  0.001201  0.005718 -0.001171 -0.009963 -0.008239
  6C   1dxy      -0.000585  0.000078 -0.002451 -0.004157  0.001580  0.000097
  7C   1s         0.156026 -0.468461  0.106872  0.028724  0.147876 -0.098681
  7C   2s         0.009210 -0.025018 -0.214269 -0.057880 -0.302397  0.205745
  7C   3s        -0.014853  0.019107 -0.035345 -0.025184 -0.034308  0.025415
  7C   1pz        0.000507  0.000426 -0.017655 -0.017720 -0.010271 -0.024405
  7C   1px        0.000393  0.000763 -0.026112 -0.027780 -0.004978 -0.039587
  7C   1py       -0.000282 -0.002167 -0.039970  0.052951 -0.075352  0.105543
  7C   2pz       -0.002666  0.002854 -0.006404 -0.018377 -0.000203 -0.008527
  7C   2px       -0.002632  0.002674 -0.008172 -0.022385  0.002051 -0.010095
  7C   2py        0.003058 -0.001707 -0.006113  0.022093 -0.015852  0.023970
  7C   1dz2      -0.000495  0.001056  0.005217  0.000121  0.006172 -0.004245
  7C   1dxz       0.000729 -0.000967 -0.004109 -0.003075 -0.004071  0.000473
  7C   1dyz      -0.000488 -0.000208  0.002050  0.002800  0.002086 -0.000139
  7C   1dx2y2    -0.000264  0.001255  0.005718 -0.003106  0.009538 -0.008239
  7C   1dxy      -0.000453 -0.000379  0.002451  0.003766  0.002367 -0.000097
  8H   1s        -0.002736 -0.000798 -0.043214  0.066554  0.029999 -0.061240
  8H   2s         0.003323  0.000748 -0.006863  0.006337  0.005969 -0.005425
  8H   1pz        0.000709  0.000106  0.003875 -0.005232 -0.002347  0.003897
  8H   1px        0.001083  0.000327  0.004321 -0.006428 -0.001500  0.006238
  8H   1py        0.001158  0.000115  0.005418 -0.007139 -0.003415  0.005216
  9H   1s         0.002739  0.000789 -0.043214  0.071152 -0.016333 -0.061240
  9H   2s        -0.003208 -0.001145 -0.006863  0.007387 -0.004607 -0.005425
  9H   1pz       -0.000655 -0.000290  0.003875 -0.005592  0.001273  0.003897
  9H   1px        0.001090  0.000303 -0.004321  0.006598 -0.000207 -0.006238
  9H   1py       -0.001040 -0.000522  0.005418 -0.007671  0.001945  0.005216
 10H   1s        -0.002739 -0.000789 -0.043214 -0.071152  0.016333 -0.061240
 10H   2s         0.003208  0.001145 -0.006863 -0.007387  0.004607 -0.005425
 10H   1pz        0.000655  0.000290  0.003875  0.005592 -0.001273  0.003897
 10H   1px        0.001090  0.000303  0.004321  0.006598 -0.000207  0.006238
 10H   1py       -0.001040 -0.000522 -0.005418 -0.007671  0.001945 -0.005216
 11H   1s         0.002736  0.000798 -0.043214 -0.066554 -0.029999 -0.061240
 11H   2s        -0.003323 -0.000748 -0.006863 -0.006337 -0.005969 -0.005425
 11H   1pz       -0.000709 -0.000106  0.003875  0.005232  0.002347  0.003897
 11H   1px        0.001083  0.000327 -0.004321 -0.006428 -0.001500 -0.006238
 11H   1py        0.001158  0.000115 -0.005418 -0.007139 -0.003415 -0.005216
 12H   1s         0.000789 -0.002739 -0.043214  0.016333  0.071152  0.061240
 12H   2s        -0.001145  0.003208 -0.006863  0.004607  0.007387  0.005425
 12H   1pz        0.000290 -0.000655 -0.003875  0.001273  0.005592  0.003897
 12H   1px       -0.000522  0.001040  0.005418 -0.001945 -0.007671 -0.005216
 12H   1py       -0.000303  0.001090  0.004321 -0.000207 -0.006598 -0.006238
 13H   1s         0.000798 -0.002736 -0.043214  0.029999 -0.066554  0.061240
 13H   2s        -0.000748  0.003323 -0.006863  0.005969 -0.006337  0.005425
 13H   1pz        0.000106 -0.000709 -0.003875  0.002347 -0.005232  0.003897
 13H   1px        0.000115 -0.001158 -0.005418  0.003415 -0.007139  0.005216
 13H   1py       -0.000327  0.001083  0.004321 -0.001500  0.006428 -0.006238
 14H   1s        -0.000798  0.002736 -0.043214 -0.029999  0.066554  0.061240
 14H   2s         0.000748 -0.003323 -0.006863 -0.005969  0.006337  0.005425
 14H   1pz       -0.000106  0.000709 -0.003875 -0.002347  0.005232  0.003897
 14H   1px        0.000115 -0.001158  0.005418  0.003415 -0.007139 -0.005216
 14H   1py       -0.000327  0.001083 -0.004321 -0.001500  0.006428  0.006238
 15H   1s        -0.000789  0.002739 -0.043214 -0.016333 -0.071152  0.061240
 15H   2s         0.001145 -0.003208 -0.006863 -0.004607 -0.007387  0.005425
 15H   1pz       -0.000290  0.000655 -0.003875 -0.001273 -0.005592  0.003897
 15H   1px       -0.000522  0.001040 -0.005418 -0.001945 -0.007671  0.005216
 15H   1py       -0.000303  0.001090 -0.004321 -0.000207 -0.006598  0.006238
                     12        13        14        15        16        17   
                  -0.71727  -0.64385  -0.64385  -0.58375  -0.55400  -0.53893
                   2.00000   2.00000   2.00000   2.00000   2.00000   2.00000
                  --------  --------  --------  --------  --------  --------
  0C   1s         0.092698  0.056689 -0.088164  0.007049  0.003547  0.004904
  0C   2s        -0.199403 -0.126701  0.194110 -0.013912 -0.010458 -0.017055
  0C   3s        -0.012840 -0.017421  0.028890 -0.021695 -0.014806 -0.038888
  0C   1pz        0.025007  0.057004  0.062659 -0.082239  0.074810  0.063394
  0C   1px       -0.102145 -0.191796 -0.047922 -0.042384 -0.231431  0.082238
  0C   1py        0.017464  0.046090  0.065510 -0.162517  0.049811  0.138495
  0C   2pz        0.016484  0.022108  0.008563 -0.025746  0.020732 -0.000977
  0C   2px       -0.038353 -0.053271 -0.004667 -0.015229 -0.058885  0.068508
  0C   2py        0.014781  0.022577  0.003469 -0.052753  0.011427  0.036828
  0C   1dz2      -0.000685 -0.002899 -0.002117 -0.000983 -0.003073  0.002493
  0C   1dxz       0.004064  0.001546  0.000315  0.003123  0.000526 -0.003133
  0C   1dyz      -0.004543 -0.004039  0.001231  0.000216 -0.002263 -0.000422
  0C   1dx2y2     0.001205  0.003692  0.000637 -0.002360  0.002571  0.003181
  0C   1dxy       0.002771 -0.000351  0.000109  0.003703 -0.000471  0.002957
  1C   1s        -0.092698 -0.093063  0.048225  0.007049  0.003547  0.001005
  1C   2s         0.199403  0.205075 -0.108058 -0.013912 -0.010458 -0.002266
  1C   3s         0.012840  0.030388 -0.014652 -0.021695 -0.014806  0.008738
  1C   1pz       -0.025007  0.057073  0.062596 -0.082239  0.074810  0.049664
  1C   1px       -0.102145  0.029837  0.195428  0.042384  0.231431 -0.067647
  1C   1py       -0.017464  0.060929  0.051995 -0.162517  0.049811  0.011145
  1C   2pz       -0.016484  0.006465  0.022809 -0.025746  0.020732  0.045618
  1C   2px       -0.038353 -0.000318  0.053474  0.015229  0.058885  0.054652
  1C   2py       -0.014781  0.001350  0.022802 -0.052753  0.011427  0.017736
  1C   1dz2       0.000685 -0.001837 -0.003084 -0.000983 -0.003073 -0.001575
  1C   1dxz       0.004064 -0.000170 -0.001569 -0.003123 -0.000526 -0.000149
  1C   1dyz       0.004543  0.001602 -0.003907  0.000216 -0.002263  0.002084
  1C   1dx2y2    -0.001205  0.000290  0.003735 -0.002360  0.002571 -0.007418
  1C   1dxy       0.002771 -0.000142  0.000340 -0.003703  0.000471  0.006308
  2C   1s        -0.092698  0.093063 -0.048225  0.007049  0.003547 -0.001005
  2C   2s         0.199403 -0.205075  0.108058 -0.013912 -0.010458  0.002266
  2C   3s         0.012840 -0.030388  0.014652 -0.021695 -0.014806 -0.008738
  2C   1pz       -0.025007 -0.057073 -0.062596 -0.082239  0.074810 -0.049664
  2C   1px        0.102145  0.029837  0.195428 -0.042384 -0.231431 -0.067647
  2C   1py        0.017464  0.060929  0.051995  0.162517 -0.049811  0.011145
  2C   2pz       -0.016484 -0.006465 -0.022809 -0.025746  0.020732 -0.045618
  2C   2px        0.038353 -0.000318  0.053474 -0.015229 -0.058885  0.054652
  2C   2py        0.014781  0.001350  0.022802  0.052753 -0.011427  0.017736
  2C   1dz2       0.000685  0.001837  0.003084 -0.000983 -0.003073  0.001575
  2C   1dxz      -0.004064 -0.000170 -0.001569  0.003123  0.000526 -0.000149
  2C   1dyz      -0.004543  0.001602 -0.003907 -0.000216  0.002263  0.002084
  2C   1dx2y2    -0.001205 -0.000290 -0.003735 -0.002360  0.002571  0.007418
  2C   1dxy       0.002771  0.000142 -0.000340 -0.003703  0.000471 -0.006308
  3C   1s         0.092698 -0.056689  0.088164  0.007049  0.003547 -0.004904
  3C   2s        -0.199403  0.126701 -0.194110 -0.013912 -0.010458  0.017055
  3C   3s        -0.012840  0.017421 -0.028890 -0.021695 -0.014806  0.038888
  3C   1pz        0.025007 -0.057004 -0.062659 -0.082239  0.074810 -0.063394
  3C   1px        0.102145 -0.191796 -0.047922  0.042384  0.231431  0.082238
  3C   1py       -0.017464  0.046090  0.065510  0.162517 -0.049811  0.138495
  3C   2pz        0.016484 -0.022108 -0.008563 -0.025746  0.020732  0.000977
  3C   2px        0.038353 -0.053271 -0.004667  0.015229  0.058885  0.068508
  3C   2py       -0.014781  0.022577  0.003469  0.052753 -0.011427  0.036828
  3C   1dz2      -0.000685  0.002899  0.002117 -0.000983 -0.003073 -0.002493
  3C   1dxz      -0.004064  0.001546  0.000315 -0.003123 -0.000526 -0.003133
  3C   1dyz       0.004543 -0.004039  0.001231 -0.000216  0.002263 -0.000422
  3C   1dx2y2     0.001205 -0.003692 -0.000637 -0.002360  0.002571 -0.003181
  3C   1dxy       0.002771  0.000351 -0.000109  0.003703 -0.000471 -0.002957
  4C   1s         0.092698  0.048225  0.093063  0.007049  0.003547  0.006979
  4C   2s        -0.199403 -0.108058 -0.205075 -0.013912 -0.010458 -0.023320
  4C   3s        -0.012840 -0.014652 -0.030388 -0.021695 -0.014806 -0.042411
  4C   1pz       -0.025007 -0.062596  0.057073  0.082239 -0.074810 -0.118596
  4C   1px        0.017464  0.051995 -0.060929 -0.162517  0.049811  0.183750
  4C   1py       -0.102145 -0.195428  0.029837 -0.042384 -0.231431  0.156341
  4C   2pz       -0.016484 -0.022809  0.006465  0.025746 -0.020732 -0.034068
  4C   2px        0.014781  0.022802 -0.001350 -0.052753  0.011427  0.060295
  4C   2py       -0.038353 -0.053474 -0.000318 -0.015229 -0.058885  0.044332
  4C   1dz2      -0.000685 -0.003084  0.001837 -0.000983 -0.003073  0.001933
  4C   1dxz       0.004543  0.003907  0.001602 -0.000216  0.002263 -0.001080
  4C   1dyz      -0.004064 -0.001569  0.000170 -0.003123 -0.000526  0.003847
  4C   1dx2y2    -0.001205 -0.003735  0.000290  0.002360 -0.002571  0.001719
  4C   1dxy       0.002771 -0.000340 -0.000142  0.003703 -0.000471 -0.001143
  5C   1s        -0.092698  0.088164  0.056689  0.007049  0.003547 -0.005067
  5C   2s         0.199403 -0.194110 -0.126701 -0.013912 -0.010458  0.016064
  5C   3s         0.012840 -0.028890 -0.017421 -0.021695 -0.014806  0.019046
  5C   1pz        0.025007  0.062659 -0.057004  0.082239 -0.074810  0.111860
  5C   1px        0.017464  0.065510 -0.046090  0.162517 -0.049811  0.121274
  5C   1py        0.102145  0.047922 -0.191796 -0.042384 -0.231431 -0.149183
  5C   2pz        0.016484  0.008563 -0.022108  0.025746 -0.020732  0.056927
  5C   2px        0.014781  0.003469 -0.022577  0.052753 -0.011427  0.050928
  5C   2py        0.038353  0.004667 -0.053271 -0.015229 -0.058885  0.016088
  5C   1dz2       0.000685  0.002117 -0.002899 -0.000983 -0.003073  0.000063
  5C   1dxz       0.004543 -0.001231 -0.004039  0.000216 -0.002263 -0.002309
  5C   1dyz       0.004064  0.000315 -0.001546 -0.003123 -0.000526 -0.002236
  5C   1dx2y2     0.001205  0.000637 -0.003692  0.002360 -0.002571 -0.006919
  5C   1dxy       0.002771  0.000109  0.000351 -0.003703  0.000471 -0.005688
  6C   1s        -0.092698 -0.088164 -0.056689  0.007049  0.003547  0.005067
  6C   2s         0.199403  0.194110  0.126701 -0.013912 -0.010458 -0.016064
  6C   3s         0.012840  0.028890  0.017421 -0.021695 -0.014806 -0.019046
  6C   1pz        0.025007 -0.062659  0.057004  0.082239 -0.074810 -0.111860
  6C   1px       -0.017464  0.065510 -0.046090 -0.162517  0.049811  0.121274
  6C   1py       -0.102145  0.047922 -0.191796  0.042384  0.231431 -0.149183
  6C   2pz        0.016484 -0.008563  0.022108  0.025746 -0.020732 -0.056927
  6C   2px       -0.014781  0.003469 -0.022577 -0.052753  0.011427  0.050928
  6C   2py       -0.038353  0.004667 -0.053271  0.015229  0.058885  0.016088
  6C   1dz2       0.000685 -0.002117  0.002899 -0.000983 -0.003073 -0.000063
  6C   1dxz      -0.004543 -0.001231 -0.004039 -0.000216  0.002263 -0.002309
  6C   1dyz      -0.004064  0.000315 -0.001546  0.003123  0.000526 -0.002236
  6C   1dx2y2     0.001205 -0.000637  0.003692  0.002360 -0.002571  0.006919
  6C   1dxy       0.002771 -0.000109 -0.000351 -0.003703  0.000471  0.005688
  7C   1s         0.092698 -0.048225 -0.093063  0.007049  0.003547 -0.006979
  7C   2s        -0.199403  0.108058  0.205075 -0.013912 -0.010458  0.023320
  7C   3s        -0.012840  0.014652  0.030388 -0.021695 -0.014806  0.042411
  7C   1pz       -0.025007  0.062596 -0.057073  0.082239 -0.074810  0.118596
  7C   1px       -0.017464  0.051995 -0.060929  0.162517 -0.049811  0.183750
  7C   1py        0.102145 -0.195428  0.029837  0.042384  0.231431  0.156341
  7C   2pz       -0.016484  0.022809 -0.006465  0.025746 -0.020732  0.034068
  7C   2px       -0.014781  0.022802 -0.001350  0.052753 -0.011427  0.060295
  7C   2py        0.038353 -0.053474 -0.000318  0.015229  0.058885  0.044332
  7C   1dz2      -0.000685  0.003084 -0.001837 -0.000983 -0.003073 -0.001933
  7C   1dxz      -0.004543  0.003907  0.001602  0.000216 -0.002263 -0.001080
  7C   1dyz       0.004064 -0.001569  0.000170  0.003123  0.000526  0.003847
  7C   1dx2y2    -0.001205  0.003735 -0.000290  0.002360 -0.002571 -0.001719
  7C   1dxy       0.002771  0.000340  0.000142  0.003703 -0.000471  0.001143
  8H   1s        -0.080025 -0.064764  0.106299 -0.114464 -0.027573  0.111718
  8H   2s        -0.013338 -0.013866  0.018265 -0.005752 -0.003513  0.017568
  8H   1pz        0.005045  0.004289 -0.004437  0.004176  0.002627 -0.003409
  8H   1px        0.002319 -0.001593 -0.006560  0.004889 -0.004946 -0.003417
  8H   1py        0.006919  0.005284 -0.006519  0.004732  0.002418 -0.004245
  9H   1s         0.080025  0.111873 -0.054574 -0.114464 -0.027573  0.043944
  9H   2s         0.013338  0.019478 -0.012103 -0.005752 -0.003513  0.008515
  9H   1pz       -0.005045 -0.004817  0.003857  0.004176  0.002627 -0.001486
  9H   1px        0.002319  0.006383  0.002198 -0.004889  0.004946 -0.000373
  9H   1py       -0.006919 -0.006984  0.004653  0.004732  0.002418 -0.002505
 10H   1s         0.080025 -0.111873  0.054574 -0.114464 -0.027573 -0.043944
 10H   2s         0.013338 -0.019478  0.012103 -0.005752 -0.003513 -0.008515
 10H   1pz       -0.005045  0.004817 -0.003857  0.004176  0.002627  0.001486
 10H   1px       -0.002319  0.006383  0.002198  0.004889 -0.004946 -0.000373
 10H   1py        0.006919 -0.006984  0.004653 -0.004732 -0.002418 -0.002505
 11H   1s        -0.080025  0.064764 -0.106299 -0.114464 -0.027573 -0.111718
 11H   2s        -0.013338  0.013866 -0.018265 -0.005752 -0.003513 -0.017568
 11H   1pz        0.005045 -0.004289  0.004437  0.004176  0.002627  0.003409
 11H   1px       -0.002319 -0.001593 -0.006560 -0.004889  0.004946 -0.003417
 11H   1py       -0.006919  0.005284 -0.006519 -0.004732 -0.002418 -0.004245
 12H   1s        -0.080025 -0.054574 -0.111873 -0.114464 -0.027573  0.175274
 12H   2s        -0.013338 -0.012103 -0.019478 -0.005752 -0.003513  0.028805
 12H   1pz       -0.005045 -0.003857 -0.004817 -0.004176 -0.002627  0.005461
 12H   1px        0.006919  0.004653  0.006984  0.004732  0.002418 -0.007306
 12H   1py        0.002319 -0.002198  0.006383  0.004889 -0.004946 -0.004032
 13H   1s         0.080025 -0.106299 -0.064764 -0.114464 -0.027573 -0.142026
 13H   2s         0.013338 -0.018265 -0.013866 -0.005752 -0.003513 -0.024363
 13H   1pz        0.005045 -0.004437 -0.004289 -0.004176 -0.002627 -0.004518
 13H   1px        0.006919 -0.006519 -0.005284 -0.004732 -0.002418 -0.006452
 13H   1py       -0.002319  0.006560 -0.001593  0.004889 -0.004946  0.002173
 14H   1s         0.080025  0.106299  0.064764 -0.114464 -0.027573  0.142026
 14H   2s         0.013338  0.018265  0.013866 -0.005752 -0.003513  0.024363
 14H   1pz        0.005045  0.004437  0.004289 -0.004176 -0.002627  0.004518
 14H   1px       -0.006919 -0.006519 -0.005284  0.004732  0.002418 -0.006452
 14H   1py        0.002319  0.006560 -0.001593 -0.004889  0.004946  0.002173
 15H   1s        -0.080025  0.054574  0.111873 -0.114464 -0.027573 -0.175274
 15H   2s        -0.013338  0.012103  0.019478 -0.005752 -0.003513 -0.028805
 15H   1pz       -0.005045  0.003857  0.004817 -0.004176 -0.002627 -0.005461
 15H   1px       -0.006919  0.004653  0.006984 -0.004732 -0.002418 -0.007306
 15H   1py       -0.002319 -0.002198  0.006383 -0.004889  0.004946 -0.004032
                     18        19        20        21        22        23   
                  -0.53893  -0.52618  -0.51025  -0.45321  -0.45321  -0.41706
                   2.00000   2.00000   2.00000   2.00000   2.00000   2.00000
                  --------  --------  --------  --------  --------  --------
  0C   1s        -0.005067  0.068644  0.004934 -0.010529  0.023510 -0.017861
  0C   2s         0.016064 -0.154368 -0.015988  0.028969 -0.048934  0.054606
  0C   3s         0.019046 -0.188553 -0.026298  0.044016 -0.068046  0.046178
  0C   1pz       -0.111860 -0.077049  0.138897 -0.056010 -0.137762 -0.118690
  0C   1px       -0.149183 -0.064647  0.149586  0.180639 -0.079971  0.021502
  0C   1py       -0.121274 -0.075003  0.040374 -0.151098 -0.105481 -0.181064
  0C   2pz       -0.056927  0.027439  0.056845 -0.018950 -0.018474 -0.021848
  0C   2px        0.016088 -0.021039  0.017101  0.048225 -0.038237 -0.007801
  0C   2py       -0.050928  0.065862  0.015952 -0.054061  0.019972 -0.048099
  0C   1dz2       0.000063  0.000613 -0.002323  0.000365  0.001481 -0.000387
  0C   1dxz       0.002236 -0.007464 -0.001810 -0.002332 -0.011255 -0.006024
  0C   1dyz      -0.002309 -0.003504  0.002177  0.003301 -0.002025  0.001342
  0C   1dx2y2     0.006919  0.005856 -0.008277 -0.004225  0.006331 -0.001652
  0C   1dxy       0.005688 -0.005484 -0.002182 -0.001191 -0.010041 -0.011935
  1C   1s        -0.006979 -0.068644  0.004934 -0.023545 -0.010449  0.017861
  1C   2s         0.023320  0.154368 -0.015988  0.054255  0.017034 -0.054606
  1C   3s         0.042411  0.188553 -0.026298  0.078221  0.021192 -0.046178
  1C   1pz       -0.118596  0.077049  0.138897  0.050421  0.139904  0.118690
  1C   1px        0.156341 -0.064647 -0.149586 -0.187811  0.061258  0.021502
  1C   1py       -0.183750  0.075003  0.040374 -0.041882  0.179451  0.181064
  1C   2pz       -0.034068 -0.027439  0.056845 -0.001747  0.026407  0.021848
  1C   2px        0.044332 -0.021039 -0.017101 -0.061428  0.003794 -0.007801
  1C   2py       -0.060295 -0.065862  0.015952 -0.053560  0.021280  0.048099
  1C   1dz2      -0.001933 -0.000613 -0.002323 -0.000718 -0.001345  0.000387
  1C   1dxz      -0.003847 -0.007464  0.001810 -0.005788 -0.009930 -0.006024
  1C   1dyz      -0.001080  0.003504  0.002177  0.003809 -0.000700 -0.001342
  1C   1dx2y2     0.001719 -0.005856 -0.008277 -0.007374 -0.001885  0.001652
  1C   1dxy      -0.001143 -0.005484  0.002182 -0.005826 -0.008265 -0.011935
  2C   1s         0.006979 -0.068644  0.004934  0.023545  0.010449  0.017861
  2C   2s        -0.023320  0.154368 -0.015988 -0.054255 -0.017034 -0.054606
  2C   3s        -0.042411  0.188553 -0.026298 -0.078221 -0.021192 -0.046178
  2C   1pz        0.118596  0.077049  0.138897 -0.050421 -0.139904  0.118690
  2C   1px        0.156341  0.064647  0.149586 -0.187811  0.061258 -0.021502
  2C   1py       -0.183750 -0.075003 -0.040374 -0.041882  0.179451 -0.181064
  2C   2pz        0.034068 -0.027439  0.056845  0.001747 -0.026407  0.021848
  2C   2px        0.044332  0.021039  0.017101 -0.061428  0.003794  0.007801
  2C   2py       -0.060295  0.065862 -0.015952 -0.053560  0.021280 -0.048099
  2C   1dz2       0.001933 -0.000613 -0.002323  0.000718  0.001345  0.000387
  2C   1dxz      -0.003847  0.007464 -0.001810 -0.005788 -0.009930  0.006024
  2C   1dyz      -0.001080 -0.003504 -0.002177  0.003809 -0.000700  0.001342
  2C   1dx2y2    -0.001719 -0.005856 -0.008277  0.007374  0.001885  0.001652
  2C   1dxy       0.001143 -0.005484  0.002182  0.005826  0.008265 -0.011935
  3C   1s         0.005067  0.068644  0.004934  0.010529 -0.023510 -0.017861
  3C   2s        -0.016064 -0.154368 -0.015988 -0.028969  0.048934  0.054606
  3C   3s        -0.019046 -0.188553 -0.026298 -0.044016  0.068046  0.046178
  3C   1pz        0.111860 -0.077049  0.138897  0.056010  0.137762 -0.118690
  3C   1px       -0.149183  0.064647 -0.149586  0.180639 -0.079971 -0.021502
  3C   1py       -0.121274  0.075003 -0.040374 -0.151098 -0.105481  0.181064
  3C   2pz        0.056927  0.027439  0.056845  0.018950  0.018474 -0.021848
  3C   2px        0.016088  0.021039 -0.017101  0.048225 -0.038237  0.007801
  3C   2py       -0.050928 -0.065862 -0.015952 -0.054061  0.019972  0.048099
  3C   1dz2      -0.000063  0.000613 -0.002323 -0.000365 -0.001481 -0.000387
  3C   1dxz       0.002236  0.007464  0.001810 -0.002332 -0.011255  0.006024
  3C   1dyz      -0.002309  0.003504 -0.002177  0.003301 -0.002025 -0.001342
  3C   1dx2y2    -0.006919  0.005856 -0.008277  0.004225 -0.006331 -0.001652
  3C   1dxy      -0.005688 -0.005484 -0.002182  0.001191  0.010041 -0.011935
  4C   1s         0.001005 -0.068644 -0.004934  0.010449 -0.023545 -0.017861
  4C   2s        -0.002266  0.154368  0.015988 -0.017034  0.054255  0.054606
  4C   3s         0.008738  0.188553  0.026298 -0.021192  0.078221  0.046178
  4C   1pz       -0.049664 -0.077049  0.138897  0.139904 -0.050421  0.118690
  4C   1px        0.011145  0.075003 -0.040374 -0.179451 -0.041882 -0.181064
  4C   1py        0.067647  0.064647 -0.149586  0.061258  0.187811  0.021502
  4C   2pz       -0.045618  0.027439  0.056845  0.026407  0.001747  0.021848
  4C   2px        0.017736 -0.065862 -0.015952 -0.021280 -0.053560 -0.048099
  4C   2py       -0.054652  0.021039 -0.017101  0.003794  0.061428 -0.007801
  4C   1dz2      -0.001575 -0.000613  0.002323  0.001345 -0.000718 -0.000387
  4C   1dxz      -0.002084 -0.003504  0.002177 -0.000700 -0.003809 -0.001342
  4C   1dyz      -0.000149 -0.007464 -0.001810  0.009930 -0.005788  0.006024
  4C   1dx2y2     0.007418  0.005856 -0.008277 -0.001885  0.007374  0.001652
  4C   1dxy      -0.006308  0.005484  0.002182 -0.008265  0.005826 -0.011935
  5C   1s        -0.004904  0.068644 -0.004934  0.023510  0.010529  0.017861
  5C   2s         0.017055 -0.154368  0.015988 -0.048934 -0.028969 -0.054606
  5C   3s         0.038888 -0.188553  0.026298 -0.068046 -0.044016 -0.046178
  5C   1pz        0.063394  0.077049  0.138897  0.137762 -0.056010 -0.118690
  5C   1px        0.138495  0.075003  0.040374  0.105481 -0.151098 -0.181064
  5C   1py       -0.082238 -0.064647 -0.149586 -0.079971 -0.180639 -0.021502
  5C   2pz       -0.000977 -0.027439  0.056845  0.018474 -0.018950 -0.021848
  5C   2px        0.036828 -0.065862  0.015952 -0.019972 -0.054061 -0.048099
  5C   2py       -0.068508 -0.021039 -0.017101 -0.038237 -0.048225  0.007801
  5C   1dz2      -0.002493  0.000613  0.002323  0.001481 -0.000365  0.000387
  5C   1dxz       0.000422 -0.003504 -0.002177 -0.002025 -0.003301 -0.001342
  5C   1dyz      -0.003133  0.007464 -0.001810  0.011255 -0.002332 -0.006024
  5C   1dx2y2     0.003181 -0.005856 -0.008277 -0.006331 -0.004225 -0.001652
  5C   1dxy       0.002957  0.005484 -0.002182  0.010041 -0.001191 -0.011935
  6C   1s         0.004904  0.068644 -0.004934 -0.023510 -0.010529  0.017861
  6C   2s        -0.017055 -0.154368  0.015988  0.048934  0.028969 -0.054606
  6C   3s        -0.038888 -0.188553  0.026298  0.068046  0.044016 -0.046178
  6C   1pz       -0.063394  0.077049  0.138897 -0.137762  0.056010 -0.118690
  6C   1px        0.138495 -0.075003 -0.040374  0.105481 -0.151098  0.181064
  6C   1py       -0.082238  0.064647  0.149586 -0.079971 -0.180639  0.021502
  6C   2pz        0.000977 -0.027439  0.056845 -0.018474  0.018950 -0.021848
  6C   2px        0.036828  0.065862 -0.015952 -0.019972 -0.054061  0.048099
  6C   2py       -0.068508  0.021039  0.017101 -0.038237 -0.048225 -0.007801
  6C   1dz2       0.002493  0.000613  0.002323 -0.001481  0.000365  0.000387
  6C   1dxz       0.000422  0.003504  0.002177 -0.002025 -0.003301  0.001342
  6C   1dyz      -0.003133 -0.007464  0.001810  0.011255 -0.002332  0.006024
  6C   1dx2y2    -0.003181 -0.005856 -0.008277  0.006331  0.004225 -0.001652
  6C   1dxy      -0.002957  0.005484 -0.002182 -0.010041  0.001191 -0.011935
  7C   1s        -0.001005 -0.068644 -0.004934 -0.010449  0.023545 -0.017861
  7C   2s         0.002266  0.154368  0.015988  0.017034 -0.054255  0.054606
  7C   3s        -0.008738  0.188553  0.026298  0.021192 -0.078221  0.046178
  7C   1pz        0.049664 -0.077049  0.138897 -0.139904  0.050421  0.118690
  7C   1px        0.011145 -0.075003  0.040374 -0.179451 -0.041882  0.181064
  7C   1py        0.067647 -0.064647  0.149586  0.061258  0.187811 -0.021502
  7C   2pz        0.045618  0.027439  0.056845 -0.026407 -0.001747  0.021848
  7C   2px        0.017736  0.065862  0.015952 -0.021280 -0.053560  0.048099
  7C   2py       -0.054652 -0.021039  0.017101  0.003794  0.061428  0.007801
  7C   1dz2       0.001575 -0.000613  0.002323 -0.001345  0.000718 -0.000387
  7C   1dxz      -0.002084  0.003504 -0.002177 -0.000700 -0.003809  0.001342
  7C   1dyz      -0.000149  0.007464  0.001810  0.009930 -0.005788 -0.006024
  7C   1dx2y2    -0.007418  0.005856 -0.008277  0.001885 -0.007374  0.001652
  7C   1dxy       0.006308  0.005484  0.002182  0.008265 -0.005826 -0.011935
  8H   1s        -0.142026 -0.168228  0.121173 -0.028648 -0.194525 -0.149995
  8H   2s        -0.024363 -0.050939  0.025723 -0.005825 -0.066892 -0.056991
  8H   1pz        0.004518  0.005038 -0.002061  0.000525  0.003756  0.002852
  8H   1px        0.002173  0.004904 -0.001239  0.005695  0.004137  0.004889
  8H   1py        0.006452  0.007122 -0.006336 -0.001537  0.007191  0.003625
  9H   1s        -0.175274  0.168228  0.121173  0.108714  0.163836  0.149995
  9H   2s        -0.028805  0.050939  0.025723  0.040379  0.053648  0.056991
  9H   1pz        0.005461 -0.005038 -0.002061 -0.002120 -0.003145 -0.002852
  9H   1px       -0.004032  0.004904  0.001239 -0.001470  0.006884  0.004889
  9H   1py        0.007306 -0.007122 -0.006336 -0.005949 -0.004321 -0.003625
 10H   1s         0.175274  0.168228  0.121173 -0.108714 -0.163836  0.149995
 10H   2s         0.028805  0.050939  0.025723 -0.040379 -0.053648  0.056991
 10H   1pz       -0.005461 -0.005038 -0.002061  0.002120  0.003145 -0.002852
 10H   1px       -0.004032 -0.004904 -0.001239 -0.001470  0.006884 -0.004889
 10H   1py        0.007306  0.007122  0.006336 -0.005949 -0.004321  0.003625
 11H   1s         0.142026 -0.168228  0.121173  0.028648  0.194525 -0.149995
 11H   2s         0.024363 -0.050939  0.025723  0.005825  0.066892 -0.056991
 11H   1pz       -0.004518  0.005038 -0.002061 -0.000525 -0.003756  0.002852
 11H   1px        0.002173 -0.004904  0.001239  0.005695  0.004137 -0.004889
 11H   1py        0.006452 -0.007122  0.006336 -0.001537  0.007191 -0.003625
 12H   1s         0.043944  0.168228 -0.121173 -0.163836  0.108714 -0.149995
 12H   2s         0.008515  0.050939 -0.025723 -0.053648  0.040379 -0.056991
 12H   1pz        0.001486  0.005038 -0.002061 -0.003145  0.002120 -0.002852
 12H   1px       -0.002505 -0.007122  0.006336  0.004321 -0.005949  0.003625
 12H   1py        0.000373 -0.004904  0.001239  0.006884  0.001470  0.004889
 13H   1s        -0.111718 -0.168228 -0.121173 -0.194525  0.028648  0.149995
 13H   2s        -0.017568 -0.050939 -0.025723 -0.066892  0.005825  0.056991
 13H   1pz       -0.003409 -0.005038 -0.002061 -0.003756  0.000525  0.002852
 13H   1px       -0.004245 -0.007122 -0.006336 -0.007191 -0.001537  0.003625
 13H   1py        0.003417  0.004904  0.001239  0.004137 -0.005695 -0.004889
[...]
     27       0.059161  -0.443402  -0.313066   0.439010  -0.073012  -0.318045
     28       0.012381  -0.169589  -0.114427   0.124555  -0.051161  -0.063594
     29      -0.003785  -0.139928  -0.106481   0.142172  -0.054031  -0.093086
     30       0.059160  -0.443402   0.313066   0.439010  -0.073012   0.318044
     31       0.012380  -0.169589   0.114427   0.124555  -0.051161   0.063594
     32       0.003786   0.139928  -0.106481  -0.142172   0.054031  -0.093086
     33       0.143113   0.423821   0.313066   0.438017   0.078755   0.318044
     34      -0.044680  -0.164065  -0.114427  -0.123875  -0.052788  -0.063594
     35       0.023125   0.138056   0.106481   0.141452   0.055888   0.093086
     36      -0.169589  -0.012380  -0.114427   0.051161   0.124555   0.063594
     37       0.443402   0.059160   0.313066  -0.073012  -0.439010  -0.318045
     38       0.139928  -0.003785   0.106481  -0.054031  -0.142172  -0.093086
     39      -0.164065   0.044680  -0.114427   0.052788  -0.123875   0.063594
     40      -0.423821   0.143112  -0.313065   0.078755  -0.438017   0.318044
     41      -0.138056   0.023125  -0.106481   0.055888  -0.141452   0.093086
     42      -0.164065   0.044680   0.114427   0.052788  -0.123875  -0.063594
     43      -0.423821   0.143113   0.313066   0.078755  -0.438016  -0.318045
     44       0.138056  -0.023125  -0.106481  -0.055888   0.141452   0.093086
     45      -0.169589  -0.012381   0.114427   0.051161   0.124555  -0.063594
     46       0.443402   0.059161  -0.313065  -0.073012  -0.439010   0.318045
     47      -0.139928   0.003785   0.106481   0.054031   0.142172  -0.093086
                 36         37         38         39         40         41    
      0      -0.019511   0.378268   0.219028   0.324099  -0.013332  -0.015211
      1       0.064362  -0.037354   0.006919  -0.074910  -0.020795  -0.024183
      2       0.024684  -0.043934  -0.014562  -0.063118  -0.014721  -0.016751
      3      -0.019780  -0.378253  -0.219029  -0.324099  -0.013332  -0.018839
      4      -0.064391  -0.037306   0.006917  -0.074910   0.020795   0.029390
      5      -0.024716  -0.043916  -0.014563  -0.063118   0.014721   0.020727
      6      -0.019795  -0.378270   0.219008   0.324099   0.013332  -0.018839
      7      -0.064390  -0.037305  -0.006921   0.074910  -0.020796   0.029390
      8       0.024717   0.043917  -0.014560  -0.063118   0.014721  -0.020727
      9      -0.019496   0.378285  -0.219009  -0.324099   0.013332  -0.015211
     10       0.064363  -0.037354  -0.006919   0.074910   0.020795  -0.024183
     11      -0.024683   0.043935  -0.014561  -0.063118  -0.014721   0.016751
     12       0.037306  -0.064391  -0.006920  -0.074910   0.020795  -0.004327
     13      -0.378255   0.019796  -0.219026   0.324098   0.013332  -0.002355
     14      -0.043916   0.024717  -0.014562   0.063118  -0.014721   0.002613
     15       0.037354   0.064363   0.006922   0.074910   0.020795   0.017253
     16       0.378283   0.019512  -0.219010   0.324099  -0.013332  -0.011361
     17       0.043935   0.024684  -0.014560   0.063118   0.014721   0.012483
     18       0.037354   0.064363  -0.006916  -0.074910  -0.020795   0.017253
     19       0.378270   0.019495   0.219027  -0.324098   0.013332  -0.011361
     20      -0.043934  -0.024683  -0.014563   0.063118   0.014721  -0.012483
     21       0.037306  -0.064391   0.006918   0.074910  -0.020795  -0.004327
     22      -0.378268   0.019779   0.219011  -0.324099  -0.013332  -0.002355
     23       0.043917  -0.024716  -0.014561   0.063118  -0.014721  -0.002614
     24      -0.048257  -0.135095  -0.158976   0.010495   0.162081   0.184422
     25       0.099143   0.162466   0.146272   0.072643   0.255093   0.293768
     26      -0.011936   0.203703   0.173514   0.070550   0.181189   0.208622
     27      -0.048165   0.135132   0.158974  -0.010495   0.162082   0.225894
     28      -0.099030   0.162540   0.146267   0.072643  -0.255093  -0.357657
     29       0.012078   0.203695   0.173515   0.070550  -0.181189  -0.253617
     30      -0.048155   0.135144  -0.158969   0.010495  -0.162083   0.225893
     31      -0.099021   0.162552  -0.146263  -0.072643   0.255095  -0.357657
     32      -0.012089  -0.203708   0.173504   0.070551  -0.181190   0.253617
     33      -0.048266  -0.135108   0.158967  -0.010495  -0.162082   0.184421
     34       0.099152   0.162477  -0.146259  -0.072643  -0.255094   0.293767
     35       0.011925  -0.203717   0.173504   0.070551   0.181190  -0.208621
     36      -0.162541  -0.099020  -0.146271   0.072643  -0.255094   0.051901
     37       0.135132   0.048154   0.158976   0.010495  -0.162082   0.031165
     38       0.203696  -0.012090   0.173513  -0.070550   0.181189  -0.037250
     39      -0.162476   0.099142   0.146264  -0.072643  -0.255094  -0.210508
     40      -0.135106   0.048255   0.158970   0.010495   0.162082   0.134120
     41      -0.203716  -0.011937   0.173505  -0.070551  -0.181190  -0.148951
     42      -0.162467   0.099154  -0.146266   0.072643   0.255095  -0.210506
     43      -0.135097   0.048268  -0.158974  -0.010495  -0.162083   0.134119
     44       0.203705   0.011924   0.173514  -0.070550  -0.181190   0.148949
     45      -0.162551  -0.099031   0.146259  -0.072643   0.255094   0.051903
     46       0.135143   0.048166  -0.158968  -0.010495   0.162082   0.031166
     47      -0.203707   0.012077   0.173505  -0.070551   0.181189   0.037251
                 42         43         44         45         46         47    
      0      -0.011361   0.013134  -0.016660   0.020389  -0.010957  -0.016647
      1      -0.017253   0.021381  -0.021202   0.025909  -0.016980  -0.022126
      2      -0.012483   0.014833  -0.015096   0.018048  -0.012027  -0.015306
      3      -0.002355   0.013134   0.016660  -0.022856   0.003654   0.016647
      4       0.004327  -0.021381  -0.021202   0.030899  -0.002214  -0.022126
      5       0.002614  -0.014833  -0.015096   0.021644  -0.001384  -0.015306
      6      -0.002355  -0.013134  -0.016660  -0.022856   0.003654  -0.016647
      7       0.004328   0.021381   0.021202   0.030899  -0.002214   0.022126
      8      -0.002614  -0.014833  -0.015096  -0.021644   0.001384  -0.015306
      9      -0.011361  -0.013134   0.016660   0.020389  -0.010957   0.016647
     10      -0.017253  -0.021381   0.021202   0.025909  -0.016980   0.022126
     11       0.012483   0.014833  -0.015096  -0.018048   0.012027  -0.015306
     12       0.029390   0.021381   0.021202  -0.002214  -0.030899  -0.022126
     13       0.018839   0.013134   0.016660  -0.003654  -0.022856  -0.016647
     14      -0.020727  -0.014833  -0.015096   0.001384   0.021644   0.015306
     15      -0.024183   0.021381  -0.021202  -0.016980  -0.025909   0.022126
     16       0.015211  -0.013134   0.016660   0.010957   0.020389  -0.016647
     17      -0.016751   0.014833  -0.015096  -0.012027  -0.018047   0.015306
     18      -0.024183  -0.021381   0.021202  -0.016980  -0.025909  -0.022126
     19       0.015211   0.013134  -0.016660   0.010957   0.020389   0.016647
     20       0.016751   0.014833  -0.015096   0.012027   0.018047   0.015306
     21       0.029390  -0.021381  -0.021202  -0.002214  -0.030899   0.022126
     22       0.018839  -0.013134  -0.016660  -0.003654  -0.022856   0.016647
     23       0.020727  -0.014833  -0.015096  -0.001384  -0.021644   0.015306
     24       0.134118  -0.159464   0.163061  -0.193912   0.119692   0.160277
     25       0.210505  -0.256697   0.255143  -0.305008   0.196484   0.256850
     26       0.148949  -0.181186   0.179884  -0.214250   0.136267   0.179831
     27       0.031166  -0.159465  -0.163060   0.226768  -0.022445  -0.160276
     28      -0.051903   0.256697   0.255142  -0.361673   0.028772   0.256849
     29      -0.037251   0.181187   0.179883  -0.252991   0.021603   0.179831
     30       0.031167   0.159464   0.163061   0.226768  -0.022445   0.160276
     31      -0.051904  -0.256697  -0.255143  -0.361673   0.028772  -0.256848
     32       0.037252   0.181186   0.179884   0.252991  -0.021603   0.179830
     33       0.134119   0.159464  -0.163061  -0.193912   0.119692  -0.160276
     34       0.210506   0.256695  -0.255144  -0.305008   0.196483  -0.256849
     35      -0.148950  -0.181185   0.179885   0.214250  -0.136266   0.179831
     36      -0.357657  -0.256696  -0.255144   0.028774   0.361673   0.256849
     37      -0.225894  -0.159464  -0.163061   0.022446   0.226769   0.160276
     38       0.253617   0.181185   0.179884  -0.021604  -0.252991  -0.179831
     39       0.293767  -0.256697   0.255143   0.196482   0.305008  -0.256849
     40      -0.184421   0.159464  -0.163061  -0.119691  -0.193911   0.160276
     41       0.208622  -0.181186   0.179884   0.136265   0.214249  -0.179831
     42       0.293768   0.256697  -0.255143   0.196483   0.305007   0.256848
     43      -0.184422  -0.159464   0.163061  -0.119692  -0.193911  -0.160276
     44      -0.208623  -0.181186   0.179884  -0.136266  -0.214249  -0.179830
     45      -0.357656   0.256697   0.255143   0.028773   0.361673  -0.256849
     46      -0.225893   0.159465   0.163061   0.022445   0.226769  -0.160277
     47      -0.253617   0.181186   0.179884   0.021603   0.252991  -0.179831


-----------
IR SPECTRUM
-----------

 Mode    freq (cm**-1)   T**2         TX         TY         TZ
-------------------------------------------------------------------
   6:       168.71    0.000000  ( -0.000000   0.000000  -0.000010)
   7:       217.34    0.000000  ( -0.000000   0.000000  -0.000000)
   8:       242.06    0.000000  ( -0.000001  -0.000002   0.000000)
   9:       276.99    1.592335  ( -0.000000  -0.000001  -1.261878)
  10:       330.55    1.251969  ( -1.079486  -0.294412   0.000001)
  11:       330.55    1.251967  (  0.294412  -1.079485   0.000001)
  12:       621.69   17.763835  (  4.214590  -0.032611  -0.000006)
  13:       621.69   17.763855  ( -0.032611  -4.214593   0.000005)
  14:       640.15    0.000000  ( -0.000022  -0.000027  -0.000001)
  15:       654.74   76.470046  (  0.000003   0.000003   8.744715)
  16:       753.53    0.000000  (  0.000006   0.000003   0.000005)
  17:       785.33   18.114368  (  4.255660   0.061047  -0.000000)
  18:       785.33   18.114373  ( -0.061047   4.255660  -0.000001)
  19:       869.41    0.000000  (  0.000001   0.000003   0.000006)
  20:       900.89    0.000000  (  0.000003  -0.000004  -0.000000)
  21:       934.70    0.748853  (  0.002454   0.865359   0.000002)
  22:       934.70    0.748879  ( -0.865374   0.002454   0.000002)
  23:       937.79    0.000000  (  0.000003  -0.000003   0.000000)
  24:       955.12    0.955013  (  0.023130   0.976974  -0.000000)
  25:       955.12    0.954999  ( -0.976967   0.023129  -0.000000)
  26:       963.44    0.000000  ( -0.000001   0.000002   0.000000)
  27:      1017.83    0.000000  ( -0.000000   0.000000   0.000000)
  28:      1185.39    1.275561  (  0.000000   0.000000  -1.129408)
  29:      1186.06    0.000000  (  0.000001   0.000000  -0.000048)
  30:      1199.93    0.964811  (  0.977677   0.094645   0.000001)
  31:      1199.93    0.964812  ( -0.094645   0.977678  -0.000000)
  32:      1316.96    0.000000  (  0.000001  -0.000000  -0.000000)
  33:      1368.38    0.056857  (  0.238442   0.001561  -0.000000)
  34:      1368.38    0.056857  (  0.001561  -0.238442   0.000000)
  35:      1415.94    0.000000  ( -0.000001  -0.000000   0.000000)
  36:      1646.38    1.452690  (  1.205276  -0.000453  -0.000019)
  37:      1646.38    1.452687  ( -0.000452  -1.205275  -0.000023)
  38:      1647.11    0.542033  (  0.000031  -0.000038   0.736229)
  39:      1677.48    0.000000  (  0.000001   0.000001  -0.000000)
  40:      3019.36    0.000000  (  0.000002  -0.000000   0.000010)
  41:      3022.56    0.889401  ( -0.874774  -0.352380  -0.000002)
  42:      3022.56    0.889458  ( -0.352389   0.874803   0.000001)
  43:      3027.41    0.000000  ( -0.000000   0.000002  -0.000004)
  44:      3037.42   31.254273  (  0.000003   0.000012  -5.590552)
  45:      3043.88   58.611870  ( -2.450621   7.253022   0.000008)
  46:      3043.88   58.611934  ( -7.253026  -2.450622  -0.000004)
  47:      3049.95    0.000000  (  0.000005  -0.000008  -0.000002)

The first frequency considered to be a vibration is 6
The total number of vibrations considered is 42


--------------------------
THERMOCHEMISTRY AT 298.15K
--------------------------

Temperature         ... 298.15 K
Pressure            ... 1.00 atm
Total Mass          ... 104.15 AMU

Throughout the following assumptions are being made:
  (1) The electronic state is orbitally nondegenerate
  (2) There are no thermally accessible electronically excited states
  (3) Hindered rotations indicated by low frequency modes are not
      treated as such but are treated as vibrations and this may
      cause some error
  (4) All equations used are the standard statistical mechanics
      equations for an ideal gas
  (5) All vibrations are strictly harmonic

freq.     168.71  E(vib)   ...       0.38 
freq.     217.34  E(vib)   ...       0.34 
freq.     242.06  E(vib)   ...       0.31 
freq.     276.99  E(vib)   ...       0.28 
freq.     330.55  E(vib)   ...       0.24 
freq.     330.55  E(vib)   ...       0.24 
freq.     621.69  E(vib)   ...       0.09 
freq.     621.69  E(vib)   ...       0.09 
freq.     640.15  E(vib)   ...       0.09 
freq.     654.74  E(vib)   ...       0.08 
freq.     753.53  E(vib)   ...       0.06 
freq.     785.33  E(vib)   ...       0.05 
freq.     785.33  E(vib)   ...       0.05 
freq.     869.41  E(vib)   ...       0.04 
freq.     900.89  E(vib)   ...       0.03 
freq.     934.70  E(vib)   ...       0.03 
freq.     934.70  E(vib)   ...       0.03 
freq.     937.79  E(vib)   ...       0.03 
freq.     955.12  E(vib)   ...       0.03 
freq.     955.12  E(vib)   ...       0.03 
freq.     963.44  E(vib)   ...       0.03 
freq.    1017.83  E(vib)   ...       0.02 
freq.    1185.39  E(vib)   ...       0.01 
freq.    1186.06  E(vib)   ...       0.01 
freq.    1199.93  E(vib)   ...       0.01 
freq.    1199.93  E(vib)   ...       0.01 
freq.    1316.96  E(vib)   ...       0.01 
freq.    1368.38  E(vib)   ...       0.01 
freq.    1368.38  E(vib)   ...       0.01 
freq.    1415.94  E(vib)   ...       0.00 
freq.    1646.38  E(vib)   ...       0.00 
freq.    1646.38  E(vib)   ...       0.00 
freq.    1647.11  E(vib)   ...       0.00 
freq.    1677.48  E(vib)   ...       0.00 
freq.    3019.36  E(vib)   ...       0.00 
freq.    3022.56  E(vib)   ...       0.00 
freq.    3022.56  E(vib)   ...       0.00 
freq.    3027.41  E(vib)   ...       0.00 
freq.    3037.42  E(vib)   ...       0.00 
freq.    3043.88  E(vib)   ...       0.00 
freq.    3043.88  E(vib)   ...       0.00 
freq.    3049.95  E(vib)   ...       0.00 

------------
INNER ENERGY
------------

The inner energy is: U= E(el) + E(ZPE) + E(vib) + E(rot) + E(trans)
    E(el)   - is the total energy from the electronic structure calculation
              = E(kin-el) + E(nuc-el) + E(el-el) + E(nuc-nuc)
    E(ZPE)  - the the zero temperature vibrational energy from the frequency calculation
    E(vib)  - the the finite temperature correction to E(ZPE) due to population
              of excited vibrational states
    E(rot)  - is the rotational thermal energy
    E(trans)- is the translational thermal energy

Summary of contributions to the inner energy U:
Electronic energy                ...   -309.28712037 Eh
Zero point energy                ...      0.12762978 Eh      80.09 kcal/mol
Thermal vibrational correction   ...      0.00422035 Eh       2.65 kcal/mol
Thermal rotational correction    ...      0.00141627 Eh       0.89 kcal/mol
Thermal translational correction ...      0.00141627 Eh       0.89 kcal/mol
-----------------------------------------------------------------------
Total thermal energy                   -309.15243770 Eh


Summary of corrections to the electronic energy:
(perhaps to be used in another calculation)
Total thermal correction                  0.00705289 Eh       4.43 kcal/mol
Non-thermal (ZPE) correction              0.12762978 Eh      80.09 kcal/mol
-----------------------------------------------------------------------
Total correction                          0.13468267 Eh      84.51 kcal/mol


--------
ENTHALPY
--------

The enthalpy is H = U + kB*T
                kB is Boltzmann's constant
Total free energy                 ...   -309.15243770 Eh 
Thermal Enthalpy correction       ...      0.00094421 Eh       0.59 kcal/mol
-----------------------------------------------------------------------
Total Enthalpy                    ...   -309.15149349 Eh


Note: Rotational entropy computed according to Herzberg 
Infrared and Raman Spectra, Chapter V,1, Van Nostrand Reinhold, 1945 
Point Group:  D2d, Symmetry Number:   4  
Rotational constants in cm-1:     0.088234     0.088234     0.049773 

Vibrational entropy computed according to the QRRHO of S. Grimme
Chem.Eur.J. 2012 18 9955


-------
ENTROPY
-------

The entropy contributions are T*S = T*(S(el)+S(vib)+S(rot)+S(trans))
     S(el)   - electronic entropy
     S(vib)  - vibrational entropy
     S(rot)  - rotational entropy
     S(trans)- translational entropy
The entropies will be listed as mutliplied by the temperature to get
units of energy

Electronic entropy                ...      0.00000000 Eh      0.00 kcal/mol
Vibrational entropy               ...      0.00661425 Eh      4.15 kcal/mol
Rotational entropy                ...      0.01191054 Eh      7.47 kcal/mol
Translational entropy             ...      0.01892886 Eh     11.88 kcal/mol
-----------------------------------------------------------------------
Final entropy term                ...      0.03745366 Eh     23.50 kcal/mol

In case the symmetry of your molecule has not been determined correctly
or in case you have a reason to use a different symmetry number we print 
out the resulting rotational entropy values for sn=1,12 :
 --------------------------------------------------------
|  sn= 1 | S(rot)=       0.01321946 Eh      8.30 kcal/mol|
|  sn= 2 | S(rot)=       0.01256500 Eh      7.88 kcal/mol|
|  sn= 3 | S(rot)=       0.01218217 Eh      7.64 kcal/mol|
|  sn= 4 | S(rot)=       0.01191054 Eh      7.47 kcal/mol|
|  sn= 5 | S(rot)=       0.01169986 Eh      7.34 kcal/mol|
|  sn= 6 | S(rot)=       0.01152771 Eh      7.23 kcal/mol|
|  sn= 7 | S(rot)=       0.01138217 Eh      7.14 kcal/mol|
|  sn= 8 | S(rot)=       0.01125609 Eh      7.06 kcal/mol|
|  sn= 9 | S(rot)=       0.01114488 Eh      6.99 kcal/mol|
|  sn=10 | S(rot)=       0.01104540 Eh      6.93 kcal/mol|
|  sn=11 | S(rot)=       0.01095541 Eh      6.87 kcal/mol|
|  sn=12 | S(rot)=       0.01087326 Eh      6.82 kcal/mol|
 --------------------------------------------------------


-------------------
GIBBS FREE ENERGY
-------------------

The Gibbs free energy is G = H - T*S

Total enthalpy                    ...   -309.15149349 Eh 
Total entropy correction          ...     -0.03745366 Eh    -23.50 kcal/mol
-----------------------------------------------------------------------
Final Gibbs free energy         ...   -309.18894715 Eh

For completeness - the Gibbs free energy minus the electronic energy
G-E(el)                           ...      0.09817323 Eh     61.60 kcal/mol


Timings for individual modules:

Sum of individual times         ...      314.697 sec (=   5.245 min)
GTO integral calculation        ...        9.053 sec (=   0.151 min)   2.9 %
SCF iterations                  ...       77.977 sec (=   1.300 min)  24.8 %
SCF Gradient evaluation         ...       37.237 sec (=   0.621 min)  11.8 %
Geometry relaxation             ...        0.585 sec (=   0.010 min)   0.2 %
Analytical frequency calculation...      189.844 sec (=   3.164 min)  60.3 %
                             ****ORCA TERMINATED NORMALLY****
TOTAL RUN TIME: 0 days 0 hours 5 minutes 18 seconds 295 msec
