
                                 *****************
                                 * O   R   C   A *
                                 *****************

           --- An Ab Initio, DFT and Semiempirical electronic structure package ---

                  #######################################################
                  #                        -***-                        #
                  #          Department of theory and spectroscopy      #
                  #               Directorship: Frank Neese             #
                  #        Max Planck Institute fuer Kohlenforschung    #
                  #                Kaiser Wilhelm Platz 1               #
                  #                 D-45470 Muelheim/Ruhr               #
                  #                      Germany                        #
                  #                                                     #
                  #                  All rights reserved                #
                  #                        -***-                        #
                  #######################################################


                         Program Version 4.2.1 -  RELEASE  -


 With contributions from (in alphabetic order):
   Daniel Aravena         : Magnetic Suceptibility
   Michael Atanasov       : Ab Initio Ligand Field Theory (pilot matlab implementation)
   Alexander A. Auer      : GIAO ZORA, VPT2
   Ute Becker             : Parallelization
   Giovanni Bistoni       : ED, misc. LED, open-shell LED, HFLD
   Martin Brehm           : Molecular dynamics
   Dmytro Bykov           : SCF Hessian
   Vijay G. Chilkuri      : MRCI spin determinant printing, contributions to CSF-ICE
   Dipayan Datta          : RHF DLPNO-CCSD density
   Achintya Kumar Dutta   : EOM-CC, STEOM-CC
   Dmitry Ganyushin       : Spin-Orbit,Spin-Spin,Magnetic field MRCI
   Miquel Garcia          : C-PCM Hessian, Gaussian charge scheme
   Yang Guo               : DLPNO-NEVPT2, CIM, IAO-localization
   Andreas Hansen         : Spin unrestricted coupled pair/coupled cluster methods
   Benjamin Helmich-Paris : CASSCF linear response (MC-RPA)
   Lee Huntington         : MR-EOM, pCC
   Robert Izsak           : Overlap fitted RIJCOSX, COSX-SCS-MP3, EOM
   Christian Kollmar      : KDIIS, OOCD, Brueckner-CCSD(T), CCSD density
   Simone Kossmann        : Meta GGA functionals, TD-DFT gradient, OOMP2, MP2 Hessian
   Martin Krupicka        : AUTO-CI
   Lucas Lang             : DCDCAS
   Dagmar Lenk            : GEPOL surface, SMD
   Dimitrios Liakos       : Extrapolation schemes; Compound Job, initial MDCI parallelization
   Dimitrios Manganas     : Further ROCIS development; embedding schemes
   Dimitrios Pantazis     : SARC Basis sets
   Taras Petrenko         : DFT Hessian,TD-DFT gradient, ASA, ECA, R-Raman, ABS, FL, XAS/XES, NRVS
   Peter Pinski           : DLPNO-MP2, DLPNO-MP2 Gradient
   Christoph Reimann      : Effective Core Potentials
   Marius Retegan         : Local ZFS, SOC
   Christoph Riplinger    : Optimizer, TS searches, QM/MM, DLPNO-CCSD(T), (RO)-DLPNO pert. Triples
   Tobias Risthaus        : Range-separated hybrids, TD-DFT gradient, RPA, STAB
   Michael Roemelt        : Original ROCIS implementation
   Masaaki Saitow         : Open-shell DLPNO-CCSD energy and density
   Barbara Sandhoefer     : DKH picture change effects
   Avijit Sen             : IP-ROCIS
   Kantharuban Sivalingam : CASSCF convergence, NEVPT2, FIC-MRCI
   Bernardo de Souza      : ESD, SOC TD-DFT
   Georgi Stoychev        : AutoAux, RI-MP2 NMR
   Willem Van den Heuvel  : Paramagnetic NMR
   Boris Wezisla          : Elementary symmetry handling
   Frank Wennmohs         : Technical directorship


 We gratefully acknowledge several colleagues who have allowed us to
 interface, adapt or use parts of their codes:
   Stefan Grimme, W. Hujo, H. Kruse,             : VdW corrections, initial TS optimization,
                  C. Bannwarth                     DFT functionals, gCP, sTDA/sTD-DF
   Ed Valeev, F. Pavosevic, A. Kumar             : LibInt (2-el integral package), F12 methods
   Garnet Chan, S. Sharma, J. Yang, R. Olivares  : DMRG
   Ulf Ekstrom                                   : XCFun DFT Library
   Mihaly Kallay                                 : mrcc  (arbitrary order and MRCC methods)
   Andreas Klamt, Michael Diedenhofen            : otool_cosmo (COSMO solvation model)
   Jiri Pittner, Ondrej Demel                    : Mk-CCSD
   Frank Weinhold                                : gennbo (NPA and NBO analysis)
   Christopher J. Cramer and Donald G. Truhlar   : smd solvation model
   Lars Goerigk                                  : TD-DFT with DH, B97 family of functionals
   V. Asgeirsson, H. Jonsson                     : NEB implementation
   FAccTs GmbH                                   : IRC, NEB, NEB-TS, Multilevel, MM, QM/MM, CI optimization
   S Lehtola, MJT Oliveira, MAL Marques          : LibXC Library


 Your calculation uses the libint2 library for the computation of 2-el integrals
 For citations please refer to: http://libint.valeyev.net

 Your ORCA version has been built with support for libXC version: 4.2.3
 For citations please refer to: https://tddft.org/programs/libxc/

 This ORCA versions uses:
   CBLAS   interface :  Fast vector & matrix operations
   LAPACKE interface :  Fast linear algebra routines
   SCALAPACK package :  Parallel linear algebra routines




***************************************
The coordinates will be read from file: init.xyz
***************************************


Your calculation utilizes the geometrical counterpoise correction gCP
Please cite in your paper:
H.Kruse, S. Grimme J.Chem.Phys., 136, (2012), 154101 
   

Your calculation utilizes the atom-pairwise dispersion correction
based on tight binding partial charges (D4)
Cite in your paper:
E.Caldeweyher, C.Bannwarth, S.Grimme, J.Chem.Phys., (2017), 147, 034112.
E.Caldeweyher, S.Ehlert, A.Hansen, H.Neugebauer, S.Grimme, J.Chem.Phys., (2018), in progress.
   

----- Orbital basis set information -----
Your calculation utilizes the basis: def2-SVP
   F. Weigend and R. Ahlrichs, Phys. Chem. Chem. Phys. 7, 3297 (2005).

----- AuxJ basis set information -----
Your calculation utilizes the auxiliary basis: def2/J
   F. Weigend, Phys. Chem. Chem. Phys. 8, 1057 (2006).

================================================================================
                                        WARNINGS
                       Please study these warnings very carefully!
================================================================================


WARNING: Geometry Optimization
  ===> : Switching off AutoStart
         For restart on a previous wavefunction, please use MOREAD

INFO   : the flag for use of LIBINT has been found!

================================================================================
                                       INPUT FILE
================================================================================
NAME = opt.inp
|  1> ! revPBE D4 gCP(DFT/TZ) def2-SVP Opt Freq TightOpt TightSCF Grid4 FinalGrid5 LargePrint
|  2> 
|  3> %pal
|  4>  nprocs 8
|  5> end
|  6> 
|  7> *xyzfile 0 1 init.xyz
|  8> 
|  9>                          ****END OF INPUT****
================================================================================

                       *****************************
                       * Geometry Optimization Run *
                       *****************************

Geometry optimization settings:
Update method            Update   .... BFGS
Choice of coordinates    CoordSys .... Z-matrix Internals
Initial Hessian          InHess   .... Almoef's Model

Convergence Tolerances:
Energy Change            TolE     ....  1.0000e-06 Eh
Max. Gradient            TolMAXG  ....  1.0000e-04 Eh/bohr
RMS Gradient             TolRMSG  ....  3.0000e-05 Eh/bohr
Max. Displacement        TolMAXD  ....  1.0000e-03 bohr
RMS Displacement         TolRMSD  ....  6.0000e-04 bohr
Strict Convergence                ....  False
------------------------------------------------------------------------------
                        ORCA OPTIMIZATION COORDINATE SETUP
------------------------------------------------------------------------------

The optimization will be done in new redundant internal coordinates
Making redundant internal coordinates   ...  (new redundants) done
Evaluating the initial hessian          ...  (Almloef) done
Evaluating the coordinates              ...  done
Calculating the B-matrix                .... done
Calculating the G-matrix                .... done
Diagonalizing the G-matrix              .... done
The first mode is                       ....   12
The number of degrees of freedom        ....   24

    -----------------------------------------------------------------
                    Redundant Internal Coordinates


    -----------------------------------------------------------------
         Definition                    Initial Value    Approx d2E/dq
    -----------------------------------------------------------------
      1. B(S   1,C   0)                  1.8254         0.340348   
      2. B(O   2,S   1)                  1.5377         0.876918   
      3. B(C   3,S   1)                  1.8254         0.340348   
      4. B(H   4,C   0)                  1.1096         0.335090   
      5. B(H   5,C   0)                  1.1098         0.334895   
      6. B(H   6,C   0)                  1.1111         0.333226   
      7. B(H   7,C   3)                  1.1098         0.334895   
      8. B(H   8,C   3)                  1.1096         0.335090   
      9. B(H   9,C   3)                  1.1111         0.333226   
     10. A(H   5,C   0,H   6)          109.1547         0.284096   
     11. A(H   4,C   0,H   6)          108.9724         0.284122   
     12. A(S   1,C   0,H   4)          109.0799         0.331600   
     13. A(S   1,C   0,H   5)          109.3449         0.331568   
     14. A(S   1,C   0,H   6)          111.8514         0.331294   
     15. A(H   4,C   0,H   5)          108.3712         0.284343   
     16. A(O   2,S   1,C   3)           93.1483         0.459605   
     17. A(C   0,S   1,C   3)           94.7370         0.390250   
     18. A(C   0,S   1,O   2)           93.1483         0.459605   
     19. A(H   7,C   3,H   9)          109.1547         0.284096   
     20. A(S   1,C   3,H   9)          111.8514         0.331294   
     21. A(H   7,C   3,H   8)          108.3712         0.284343   
     22. A(S   1,C   3,H   8)          109.0799         0.331600   
     23. A(H   8,C   3,H   9)          108.9724         0.284122   
     24. A(S   1,C   3,H   7)          109.3449         0.331568   
     25. D(C   3,S   1,C   0,H   5)    -68.7034         0.003517   
     26. D(C   3,S   1,C   0,H   4)    172.9449         0.003517   
     27. D(O   2,S   1,C   0,H   4)     79.5194         0.003517   
     28. D(C   3,S   1,C   0,H   6)     52.3247         0.003517   
     29. D(O   2,S   1,C   0,H   6)    -41.1008         0.003517   
     30. D(O   2,S   1,C   0,H   5)   -162.1289         0.003517   
     31. D(H   7,C   3,S   1,C   0)     68.7034         0.003517   
     32. D(H   9,C   3,S   1,O   2)     41.1008         0.003517   
     33. D(H   9,C   3,S   1,C   0)    -52.3247         0.003517   
     34. D(H   8,C   3,S   1,O   2)    -79.5194         0.003517   
     35. D(H   8,C   3,S   1,C   0)   -172.9449         0.003517   
     36. D(H   7,C   3,S   1,O   2)    162.1289         0.003517   
    -----------------------------------------------------------------

Number of atoms                         .... 10
Number of degrees of freedom            .... 36

         *************************************************************
         *                GEOMETRY OPTIMIZATION CYCLE   1            *
         *************************************************************
---------------------------------
CARTESIAN COORDINATES (ANGSTROEM)
---------------------------------
  C      1.342960   -0.820310   -0.173120
  S      0.000000    0.136090    0.610260
  O     -0.000000    1.203740   -0.496410
  C     -1.342960   -0.820310   -0.173120
  H      2.314660   -0.336410    0.056750
  H      1.355850   -1.847570    0.246550
  H      1.220330   -0.878520   -1.275910
  H     -1.355850   -1.847570    0.246550
  H     -2.314660   -0.336410    0.056750
  H     -1.220330   -0.878520   -1.275910

----------------------------
CARTESIAN COORDINATES (A.U.)
----------------------------
  NO LB      ZA    FRAG     MASS         X           Y           Z
   0 C     6.0000    0    12.011    2.537827   -1.550161   -0.327149
   1 S    16.0000    0    32.060    0.000000    0.257173    1.153224
   2 O     8.0000    0    15.999   -0.000000    2.274739   -0.938079
   3 C     6.0000    0    12.011   -2.537827   -1.550161   -0.327149
   4 H     1.0000    0     1.008    4.374073   -0.635723    0.107242
   5 H     1.0000    0     1.008    2.562185   -3.491401    0.465912
   6 H     1.0000    0     1.008    2.306089   -1.660162   -2.411120
   7 H     1.0000    0     1.008   -2.562185   -3.491401    0.465912
   8 H     1.0000    0     1.008   -4.374073   -0.635723    0.107242
   9 H     1.0000    0     1.008   -2.306089   -1.660162   -2.411120

--------------------------------
INTERNAL COORDINATES (ANGSTROEM)
--------------------------------
 C      0   0   0     0.000000000000     0.00000000     0.00000000
 S      1   0   0     1.825356607899     0.00000000     0.00000000
 O      2   1   0     1.537723971134    93.14832265     0.00000000
 C      2   1   3     1.825356607899    94.73698096    93.42548490
 H      1   2   3     1.109594663334   109.07987281    79.51941101
 H      1   2   3     1.109753201662   109.34494932   197.87106766
 H      1   2   3     1.111113092849   111.85138476   318.89917516
 H      4   2   1     1.109753201662   109.34494932    68.70344744
 H      4   2   1     1.109594663334   109.07987281   187.05510409
 H      4   2   1     1.111113092849   111.85138476   307.67533994

---------------------------
INTERNAL COORDINATES (A.U.)
---------------------------
 C      0   0   0     0.000000000000     0.00000000     0.00000000
 S      1   0   0     3.449424085672     0.00000000     0.00000000
 O      2   1   0     2.905877175009    93.14832265     0.00000000
 C      2   1   3     3.449424085672    94.73698096    93.42548490
 H      1   2   3     2.096830033362   109.07987281    79.51941101
 H      1   2   3     2.097129627384   109.34494932   197.87106766
 H      1   2   3     2.099699449298   111.85138476   318.89917516
 H      4   2   1     2.097129627384   109.34494932    68.70344744
 H      4   2   1     2.096830033362   109.07987281   187.05510409
 H      4   2   1     2.099699449298   111.85138476   307.67533994

---------------------
BASIS SET INFORMATION
---------------------
There are 4 groups of distinct atoms

 Group   1 Type C   : 7s4p1d contracted to 3s2p1d pattern {511/31/1}
 Group   2 Type S   : 10s7p1d contracted to 4s3p1d pattern {5311/511/1}
 Group   3 Type O   : 7s4p1d contracted to 3s2p1d pattern {511/31/1}
 Group   4 Type H   : 4s1p contracted to 2s1p pattern {31/1}

Atom   0C    basis set group =>   1
Atom   1S    basis set group =>   2
Atom   2O    basis set group =>   3
Atom   3C    basis set group =>   1
Atom   4H    basis set group =>   4
Atom   5H    basis set group =>   4
Atom   6H    basis set group =>   4
Atom   7H    basis set group =>   4
Atom   8H    basis set group =>   4
Atom   9H    basis set group =>   4

-------------------------
BASIS SET IN INPUT FORMAT
-------------------------

 # Basis set for element : H 
 NewGTO H 
 S 3 
   1      13.0107010000      0.0334854848
   2       1.9622572000      0.2347218709
   3       0.4445379600      0.8137702853
 S 1 
   1       0.1219496200      1.0000000000
 P 1 
   1       0.8000000000      1.0000000000
  end;

 # Basis set for element : C 
 NewGTO C 
 S 5 
   1    1238.4016938000      0.0055173650
   2     186.2900499200      0.0410888285
   3      42.2511763460      0.1822538213
   4      11.6765579320      0.4682845944
   5       3.5930506482      0.4457581734
 S 1 
   1       0.4024514736      1.0000000000
 S 1 
   1       0.1309018267      1.0000000000
 P 3 
   1       9.4680970621      0.0568883320
   2       2.0103545142      0.3129405934
   3       0.5477100471      0.7606501651
 P 1 
   1       0.1526861379      1.0000000000
 D 1 
   1       0.8000000000      1.0000000000
  end;

 # Basis set for element : O 
 NewGTO O 
 S 5 
   1    2266.1767785000     -0.0053893504
   2     340.8701019100     -0.0402347214
   3      77.3631351670     -0.1800818421
   4      21.4796449400     -0.4682885766
   5       6.6589433124     -0.4469261716
 S 1 
   1       0.8097597567      1.0000000000
 S 1 
   1       0.2553077223      1.0000000000
 P 3 
   1      17.7215043170      0.0626302488
   2       3.8635505440      0.3333113849
   3       1.0480920883      0.7414863830
 P 1 
   1       0.2764154441      1.0000000000
 D 1 
   1       1.2000000000      1.0000000000
  end;

 # Basis set for element : S 
 NewGTO S 
 S 5 
   1    9184.9303010000     -0.0054729467
   2    1381.5105503000     -0.0409544021
   3     313.8714758000     -0.1847582895
   4      88.0538706230     -0.4756728065
   5      27.0399149050     -0.4349515358
 S 3 
   1      45.6487313030     -0.0919040458
   2       4.9664522326      0.5569877722
   3       2.0116242047      0.5111546830
 S 1 
   1       0.3566107701      1.0000000000
 S 1 
   1       0.1350722148      1.0000000000
 P 5 
   1     261.9823343900     -0.0091830547
   2      61.3068947360     -0.0659022265
   3      19.1037298870     -0.2458778452
   4       6.6567720378     -0.4823147108
   5       2.3959635161     -0.3895631435
 P 1 
   1       0.6177616168      1.0000000000
 P 1 
   1       0.1699337687      1.0000000000
 D 1 
   1       0.5500000000      1.0000000000
  end;

---------------------------------
AUXILIARY/J BASIS SET INFORMATION
---------------------------------
There are 4 groups of distinct atoms

 Group   1 Type C   : 12s5p4d2f1g contracted to 6s4p3d1f1g pattern {711111/2111/211/2/1}
 Group   2 Type S   : 14s5p5d2f1g contracted to 8s4p3d1f1g pattern {71111111/2111/311/2/1}
 Group   3 Type O   : 12s5p4d2f1g contracted to 6s4p3d1f1g pattern {711111/2111/211/2/1}
 Group   4 Type H   : 5s2p1d contracted to 3s1p1d pattern {311/2/1}

Atom   0C    basis set group =>   1
Atom   1S    basis set group =>   2
Atom   2O    basis set group =>   3
Atom   3C    basis set group =>   1
Atom   4H    basis set group =>   4
Atom   5H    basis set group =>   4
Atom   6H    basis set group =>   4
Atom   7H    basis set group =>   4
Atom   8H    basis set group =>   4
Atom   9H    basis set group =>   4

-------------------------------------
AUXILIARY/J BASIS SET IN INPUT FORMAT
-------------------------------------

 # Auxiliary/J basis set for element : H 
 NewAuxJGTO H 
 S 3 
   1      15.6752927000      0.1007184237
   2       3.6063578000      0.3404257499
   3       1.2080016000      0.6491996172
 S 1 
   1       0.4726794000      1.0000000000
 S 1 
   1       0.2018100000      1.0000000000
 P 2 
   1       2.0281365000      0.5596620919
   2       0.5358730000      0.5596620919
 D 1 
   1       2.2165124000      1.0000000000
  end;

 # Auxiliary/J basis set for element : C 
 NewAuxJGTO C 
 S 7 
   1    1861.0916331000      0.0134602335
   2     642.9939764000      0.0299160374
   3     235.1105725000      0.1008649584
   4      90.7028894000      0.2370970548
   5      36.7794552000      0.3924037254
   6      15.6046273000      0.3195862154
   7       6.8907294000      0.0530104441
 S 1 
   1       3.1478850000     -1.0000000000
 S 1 
   1       1.4777287000      1.0000000000
 S 1 
   1       0.7076466000      1.0000000000
 S 1 
   1       0.3430122000      1.0000000000
 S 1 
   1       0.1669453000      1.0000000000
 P 2 
   1      13.5472892000     -0.6769313712
   2       5.4669419000     -0.3779500978
 P 1 
   1       2.1751721000      1.0000000000
 P 1 
   1       0.8582194000      1.0000000000
 P 1 
   1       0.3376720000      1.0000000000
 D 2 
   1       5.9287253000     -0.3533329857
   2       1.9809209000     -0.7456525731
 D 1 
   1       0.8055417000     -1.0000000000
 D 1 
   1       0.3531244000     -1.0000000000
 F 2 
   1       1.6755626000      0.6311076882
   2       0.5997536000      0.4968166032
 G 1 
   1       1.0024600000     -1.0000000000
  end;

 # Auxiliary/J basis set for element : O 
 NewAuxJGTO O 
 S 7 
   1    2876.8216605000      0.0168151159
   2    1004.7443032000      0.0340137548
   3     369.7579954000      0.1194951309
   4     142.9442404000      0.2664627624
   5      57.8366425000      0.4202764046
   6      24.3864983000      0.2765077335
   7      10.6622662000      0.0057008815
 S 1 
   1       4.8070437000     -1.0000000000
 S 1 
   1       2.2210770000      1.0000000000
 S 1 
   1       1.0447795000      1.0000000000
 S 1 
   1       0.4968425000      1.0000000000
 S 1 
   1       0.2371384000      1.0000000000
 P 2 
   1      64.2613382000     -0.2731534179
   2      16.3006076000     -0.8168011598
 P 1 
   1       4.3550542000      1.0000000000
 P 1 
   1       1.2019554000      1.0000000000
 P 1 
   1       0.3354196000      1.0000000000
 D 2 
   1       9.2146611000     -0.4661230638
   2       2.8435251000     -0.6600908911
 D 1 
   1       0.9955759000     -1.0000000000
 D 1 
   1       0.3649441000     -1.0000000000
 F 2 
   1       2.6420115000      0.5931563945
   2       0.7345613000      0.5931563945
 G 1 
   1       1.3931000000     -1.0000000000
  end;

 # Auxiliary/J basis set for element : S 
 NewAuxJGTO S 
 S 7 
   1    7399.0303145000      0.0295137551
   2    2710.1675859000      0.0559686311
   3    1034.3279062000      0.1764696370
   4     410.4645411000      0.3577969368
   5     168.9762502000      0.4299293578
   6      71.9687889000      0.1259148089
   7      31.6172683000     -0.0646025788
 S 1 
   1      14.2796836000      1.0000000000
 S 1 
   1       6.6060948000      1.0000000000
 S 1 
   1       3.1181477000      1.0000000000
 S 1 
   1       1.4954039000     -1.0000000000
 S 1 
   1       0.7254779000      1.0000000000
 S 1 
   1       0.3544216000      1.0000000000
 S 1 
   1       0.1735525000      1.0000000000
 P 2 
   1      12.6998799000      1.4059102813
   2       4.4295784000     -1.2124994202
 P 1 
   1       1.5232889000      1.0000000000
 P 1 
   1       0.5194667000     -1.0000000000
 P 1 
   1       0.1766547000     -1.0000000000
 D 3 
   1      16.8546461000      1.0295742104
   2       5.0810461000     -0.7461553923
   3       1.5102323000      0.8357028005
 D 1 
   1       0.4451331000      1.0000000000
 D 1 
   1       0.1308362000      1.0000000000
 F 2 
   1       1.0809860000      0.5572698934
   2       0.4161474000      0.5572698934
 G 1 
   1       0.6707100000     -1.0000000000
  end;



           ************************************************************
           *        Program running with 8 parallel MPI-processes     *
           *              working on a common directory               *
           ************************************************************
------------------------------------------------------------------------------
                           ORCA GTO INTEGRAL CALCULATION
                           -- RI-GTO INTEGRALS CHOSEN --
------------------------------------------------------------------------------

                         BASIS SET STATISTICS AND STARTUP INFO

Gaussian basis set:
 # of primitive gaussian shells          ...   84
 # of primitive gaussian functions       ...  150
 # of contracted shells                  ...   44
 # of contracted basis functions         ...   90
 Highest angular momentum                ...    2
 Maximum contraction depth               ...    5
Auxiliary gaussian basis set:
 # of primitive gaussian shells          ...  147
 # of primitive gaussian functions       ...  383
 # of contracted shells                  ...   92
 # of contracted aux-basis functions     ...  264
 Highest angular momentum                ...    4
 Maximum contraction depth               ...    7
Ratio of auxiliary to basis functions    ...  2.93
Integral package used                  ... LIBINT
 One Electron integrals                  ... done
 Ordering auxiliary basis shells         ... done
 Integral threshhold             Thresh  ...  2.500e-11
 Primitive cut-off               TCut    ...  2.500e-12
 Pre-screening matrix                    ... done
 Shell pair data                         ... 
 Ordering of the shell pairs             ... done (   0.000 sec) 980 of 990 pairs
 Determination of significant pairs      ... done (   0.000 sec)
 Creation of shell pair data             ... done (   0.000 sec)
 Storage of shell pair data              ... done (   0.024 sec)
 Shell pair data done in (   0.025 sec)
 Computing two index integrals           ... done
 Cholesky decomposition of the V-matrix  ... done


Timings:
 Total evaluation time                   ...   0.147 sec (  0.002 min)
 One electron matrix time                ...   0.012 sec (  0.000 min) =  7.8%
 Schwartz matrix evaluation time         ...   0.089 sec (  0.001 min) = 60.1%
 Two index repulsion integral time       ...   0.002 sec (  0.000 min) =  1.6%
 Cholesky decomposition of V             ...   0.003 sec (  0.000 min) =  2.1%
 Three index repulsion integral time     ...   0.000 sec (  0.000 min) =  0.0%



           ************************************************************
           *        Program running with 8 parallel MPI-processes     *
           *              working on a common directory               *
           ************************************************************
-------------------------------------------------------------------------------
                                 ORCA SCF
-------------------------------------------------------------------------------

------------
SCF SETTINGS
------------
Hamiltonian:
 Density Functional     Method          .... DFT(GTOs)
 Exchange Functional    Exchange        .... PBE
   PBE kappa parameter   XKappa         ....  1.245000
   PBE mue parameter    XMuePBE         ....  0.219520
 Correlation Functional Correlation     .... PBE
   PBE beta parameter  CBetaPBE         ....  0.066725
 LDA part of GGA corr.  LDAOpt          .... PW91-LDA
 Gradients option       PostSCFGGA      .... off
   Density functional embedding theory  .... OFF
   NL short-range parameter             ....  3.700000
 RI-approximation to the Coulomb term is turned on
   Number of auxiliary basis functions  .... 264


General Settings:
 Integral files         IntName         .... opt
 Hartree-Fock type      HFTyp           .... RHF
 Total Charge           Charge          ....    0
 Multiplicity           Mult            ....    1
 Number of Electrons    NEL             ....   42
 Basis Dimension        Dim             ....   90
 Nuclear Repulsion      ENuc            ....    183.6450989032 Eh

Convergence Acceleration:
 DIIS                   CNVDIIS         .... on
   Start iteration      DIISMaxIt       ....    12
   Startup error        DIISStart       ....  0.200000
   # of expansion vecs  DIISMaxEq       ....     5
   Bias factor          DIISBfac        ....   1.050
   Max. coefficient     DIISMaxC        ....  10.000
 Newton-Raphson         CNVNR           .... off
 SOSCF                  CNVSOSCF        .... on
   Start iteration      SOSCFMaxIt      ....   150
   Startup grad/error   SOSCFStart      ....  0.003300
 Level Shifting         CNVShift        .... on
   Level shift para.    LevelShift      ....    0.2500
   Turn off err/grad.   ShiftErr        ....    0.0010
 Zerner damping         CNVZerner       .... off
 Static damping         CNVDamp         .... on
   Fraction old density DampFac         ....    0.7000
   Max. Damping (<1)    DampMax         ....    0.9800
   Min. Damping (>=0)   DampMin         ....    0.0000
   Turn off err/grad.   DampErr         ....    0.1000
 Fernandez-Rico         CNVRico         .... off

SCF Procedure:
 Maximum # iterations   MaxIter         ....   125
 SCF integral mode      SCFMode         .... Direct
   Integral package                     .... LIBINT
 Reset frequency        DirectResetFreq ....    20
 Integral Threshold     Thresh          ....  2.500e-11 Eh
 Primitive CutOff       TCut            ....  2.500e-12 Eh

Convergence Tolerance:
 Convergence Check Mode ConvCheckMode   .... Total+1el-Energy
 Convergence forced     ConvForced      .... 0
 Energy Change          TolE            ....  1.000e-08 Eh
 1-El. energy change                    ....  1.000e-05 Eh
 Orbital Gradient       TolG            ....  1.000e-05
 Orbital Rotation angle TolX            ....  1.000e-05
 DIIS Error             TolErr          ....  5.000e-07


Diagonalization of the overlap matrix:
Smallest eigenvalue                        ... 4.722e-03
Time for diagonalization                   ...    0.003 sec
Threshold for overlap eigenvalues          ... 1.000e-08
Number of eigenvalues below threshold      ... 0
Time for construction of square roots      ...    0.002 sec
Total time needed                          ...    0.005 sec

-------------------
DFT GRID GENERATION
-------------------

General Integration Accuracy     IntAcc      ...  4.670
Radial Grid Type                 RadialGrid  ... Gauss-Chebyshev
Angular Grid (max. acc.)         AngularGrid ... Lebedev-302
Angular grid pruning method      GridPruning ... 3 (G Style)
Weight generation scheme         WeightScheme... Becke
Basis function cutoff            BFCut       ...    1.0000e-11
Integration weight cutoff        WCut        ...    1.0000e-14
Grids for H and He will be reduced by one unit

# of grid points (after initial pruning)     ...  45846 (   0.0 sec)
# of grid points (after weights+screening)   ...  43295 (   0.0 sec)
nearest neighbour list constructed           ...    0.0 sec
Grid point re-assignment to atoms done       ...    0.0 sec
Grid point division into batches done        ...    0.2 sec
Reduced shell lists constructed in    0.2 sec

Total number of grid points                  ...    43295
Total number of batches                      ...      681
Average number of points per batch           ...       63
Average number of grid points per atom       ...     4330
Average number of shells per batch           ...    36.13 (82.11%)
Average number of basis functions per batch  ...    75.23 (83.59%)
Average number of large shells per batch     ...    29.79 (82.47%)
Average number of large basis fcns per batch ...    59.75 (79.42%)
Maximum spatial batch extension              ...  14.67, 11.19, 13.24 au
Average spatial batch extension              ...   0.26,  0.25,  0.25 au

Time for grid setup =    0.247 sec

------------------------------
INITIAL GUESS: MODEL POTENTIAL
------------------------------
Loading Hartree-Fock densities                     ... done
Calculating cut-offs                               ... done
Setting up the integral package                    ... done
Initializing the effective Hamiltonian             ... done
Starting the Coulomb interaction                   ... done (   0.0 sec)
Reading the grid                                   ... done
Mapping shells                                     ... done
Starting the XC term evaluation                    ... done (   0.0 sec)
  promolecular density results
     # of electrons  =     41.997239742
     EX              =    -45.252288159
     EC              =     -1.467772436
     EX+EC           =    -46.720060595
Transforming the Hamiltonian                       ... done (   0.0 sec)
Diagonalizing the Hamiltonian                      ... done (   0.0 sec)
Back transforming the eigenvectors                 ... done (   0.0 sec)
Now organizing SCF variables                       ... done
                      ------------------
                      INITIAL GUESS DONE (   0.4 sec)
                      ------------------
----------------------
INITIAL GUESS ORBITALS
----------------------
                      0         1         2         3         4         5   
                 -88.09301 -18.93462 -10.07720 -10.07716  -7.74819  -5.76471
                   2.00000   2.00000   2.00000   2.00000   2.00000   2.00000
                  --------  --------  --------  --------  --------  --------
  0C   1s        -0.000027  0.000110  0.698411  0.698520  0.000156 -0.000012
  0C   2s         0.000295 -0.000888  0.037926  0.035631 -0.000940 -0.000314
  0C   3s        -0.004055 -0.003652 -0.033006 -0.023779  0.010049  0.000326
  0C   1pz        0.000050 -0.000058 -0.000591 -0.000527 -0.000292  0.000209
  0C   1px        0.000032  0.000490  0.000631  0.000947  0.000196 -0.000065
  0C   1py        0.000031 -0.000483 -0.000711 -0.000614 -0.000288 -0.000089
  0C   2pz       -0.000545 -0.001165  0.001378 -0.000068  0.001438 -0.001369
  0C   2px        0.001314  0.001708  0.004155 -0.001606 -0.003505  0.000007
  0C   2py       -0.001212  0.000984  0.001035 -0.000381  0.003153  0.001184
  0C   1dz2       0.000016  0.000213  0.000209  0.000089  0.000029  0.000053
  0C   1dxz      -0.000157  0.000083  0.000497  0.000577  0.000496 -0.000283
  0C   1dyz       0.000133 -0.000036 -0.000346 -0.000422 -0.000403  0.000102
  0C   1dx2y2    -0.000009 -0.000049 -0.000342 -0.000077 -0.000041  0.000100
  0C   1dxy      -0.000117  0.000169  0.000662  0.000672  0.000445 -0.000114
  1S   1s        -0.994240  0.000055 -0.000000  0.000043  0.306056 -0.000774
  1S   2s         0.021933  0.000394 -0.000000  0.000318  1.018318 -0.003062
  1S   3s        -0.012314 -0.003670  0.000000  0.001142  0.060703  0.001968
  1S   4s         0.012976  0.016870 -0.000000  0.000096 -0.040542  0.001995
  1S   1pz        0.000201  0.000202 -0.000000  0.000071  0.002646  0.635338
  1S   1px        0.000000  0.000000 -0.000194 -0.000000 -0.000000  0.000000
  1S   1py        0.000034  0.000012 -0.000000  0.000079  0.000013 -0.746876
  1S   2pz        0.001036  0.000486 -0.000000 -0.000162 -0.003428 -0.035181
  1S   2px        0.000000 -0.000000 -0.000266 -0.000000  0.000000 -0.000000
  1S   2py        0.000285  0.001036 -0.000000 -0.000220 -0.000819  0.041470
  1S   3pz       -0.003269 -0.008435 -0.000000  0.002586  0.008559  0.004514
  1S   3px        0.000000  0.000000  0.002852  0.000000 -0.000000  0.000000
  1S   3py       -0.002129  0.001914  0.000000 -0.000408  0.005396 -0.006132
  1S   1dz2      -0.000102  0.000178 -0.000000  0.000078  0.000224  0.000891
  1S   1dxz      -0.000000 -0.000000  0.001117  0.000000  0.000000  0.000000
  1S   1dyz       0.000332 -0.000560  0.000000 -0.000643 -0.000841 -0.002322
  1S   1dx2y2     0.000228 -0.000398  0.000000 -0.000258 -0.000539 -0.001022
  1S   1dxy      -0.000000  0.000000  0.000871  0.000000  0.000000  0.000000
  2O   1s         0.000057 -0.988942  0.000000 -0.000141 -0.000134  0.000183
  2O   2s         0.000152  0.040316  0.000000 -0.001478 -0.000975  0.001121
  2O   3s        -0.001424 -0.026098 -0.000000  0.004184  0.004452 -0.002888
  2O   1pz        0.000128  0.001083  0.000000 -0.000073 -0.000484 -0.000398
  2O   1px       -0.000000  0.000000 -0.000254 -0.000000 -0.000000  0.000000
  2O   1py       -0.000049 -0.001245 -0.000000  0.000253  0.000289  0.000155
  2O   2pz        0.000313 -0.004599  0.000000  0.000397 -0.000777 -0.002515
  2O   2px        0.000000 -0.000000  0.001568  0.000000  0.000000 -0.000000
  2O   2py       -0.000178  0.005633  0.000000 -0.002092  0.000466  0.003376
  2O   1dz2       0.000244 -0.000002  0.000000 -0.000261 -0.000433 -0.000448
  2O   1dxz      -0.000000  0.000000 -0.000011  0.000000 -0.000000  0.000000
  2O   1dyz      -0.000586  0.000427 -0.000000  0.000013  0.001012  0.001487
  2O   1dx2y2    -0.000234  0.000273  0.000000 -0.000084  0.000393  0.000724
  2O   1dxy       0.000000  0.000000 -0.000401 -0.000000 -0.000000 -0.000000
  3C   1s        -0.000027  0.000110 -0.698411  0.698520  0.000156 -0.000012
  3C   2s         0.000295 -0.000888 -0.037926  0.035631 -0.000940 -0.000314
  3C   3s        -0.004055 -0.003652  0.033006 -0.023779  0.010049  0.000326
  3C   1pz        0.000050 -0.000058  0.000591 -0.000527 -0.000292  0.000209
  3C   1px       -0.000032 -0.000490  0.000631 -0.000947 -0.000196  0.000065
  3C   1py        0.000031 -0.000483  0.000711 -0.000614 -0.000288 -0.000089
  3C   2pz       -0.000545 -0.001165 -0.001378 -0.000068  0.001438 -0.001369
  3C   2px       -0.001314 -0.001708  0.004155  0.001606  0.003505 -0.000007
  3C   2py       -0.001212  0.000984 -0.001035 -0.000381  0.003153  0.001184
  3C   1dz2       0.000016  0.000213 -0.000209  0.000089  0.000029  0.000053
  3C   1dxz       0.000157 -0.000083  0.000497 -0.000577 -0.000496  0.000283
  3C   1dyz       0.000133 -0.000036  0.000346 -0.000422 -0.000403  0.000102
  3C   1dx2y2    -0.000009 -0.000049  0.000342 -0.000077 -0.000041  0.000100
  3C   1dxy       0.000117 -0.000169  0.000662 -0.000672 -0.000445  0.000114
  4H   1s         0.000320 -0.000175 -0.002893 -0.002484 -0.000703 -0.000079
  4H   2s         0.000086 -0.000844  0.004106  0.005905  0.000155 -0.000064
  4H   1pz       -0.000020  0.000114  0.000445  0.000455  0.000078  0.000139
  4H   1px       -0.000015  0.000229  0.001737  0.001684 -0.000069 -0.000022
  4H   1py        0.000005 -0.000270  0.001137  0.001011  0.000021 -0.000129
  5H   1s         0.000163  0.000581 -0.001846 -0.002765 -0.000307  0.000363
  5H   2s        -0.000102  0.001529  0.006558  0.004654  0.000511  0.000009
  5H   1pz       -0.000020 -0.000055  0.000665  0.000865  0.000075 -0.000102
  5H   1px        0.000020 -0.000086 -0.000433 -0.000008 -0.000108  0.000266
  5H   1py       -0.000036  0.000213 -0.001880 -0.001843  0.000151 -0.000137
  6H   1s         0.000182 -0.000395 -0.001511 -0.002497 -0.000337 -0.000320
  6H   2s         0.000342  0.000580  0.007414  0.004470 -0.000696 -0.000434
  6H   1pz       -0.000004  0.000021 -0.001851 -0.001956  0.000067  0.000049
  6H   1px        0.000005  0.000013 -0.000534 -0.000315 -0.000078 -0.000124
  6H   1py        0.000004 -0.000214 -0.000130  0.000043  0.000042 -0.000040
  7H   1s         0.000163  0.000581  0.001846 -0.002765 -0.000307  0.000363
  7H   2s        -0.000102  0.001529 -0.006558  0.004654  0.000511  0.000009
  7H   1pz       -0.000020 -0.000055 -0.000665  0.000865  0.000075 -0.000102
  7H   1px       -0.000020  0.000086 -0.000433  0.000008  0.000108 -0.000266
  7H   1py       -0.000036  0.000213  0.001880 -0.001843  0.000151 -0.000137
  8H   1s         0.000320 -0.000175  0.002893 -0.002484 -0.000703 -0.000079
  8H   2s         0.000086 -0.000844 -0.004106  0.005905  0.000155 -0.000064
  8H   1pz       -0.000020  0.000114 -0.000445  0.000455  0.000078  0.000139
  8H   1px        0.000015 -0.000229  0.001737 -0.001684  0.000069  0.000022
  8H   1py        0.000005 -0.000270 -0.001137  0.001011  0.000021 -0.000129
  9H   1s         0.000182 -0.000395  0.001511 -0.002497 -0.000337 -0.000320
  9H   2s         0.000342  0.000580 -0.007414  0.004470 -0.000696 -0.000434
  9H   1pz       -0.000004  0.000021  0.001851 -0.001956  0.000067  0.000049
  9H   1px       -0.000005 -0.000013 -0.000534  0.000315  0.000078  0.000124
  9H   1py        0.000004 -0.000214  0.000130  0.000043  0.000042 -0.000040
                      6         7         8         9        10        11   
                  -5.76356  -5.76327  -1.02290  -0.78956  -0.73904  -0.63009
                   2.00000   2.00000   2.00000   2.00000   2.00000   2.00000
                  --------  --------  --------  --------  --------  --------
  0C   1s         0.000095  0.000036 -0.026602  0.156401  0.187033 -0.087170
  0C   2s         0.000317 -0.000259  0.052425 -0.328099 -0.400329  0.186447
  0C   3s         0.001437  0.010703  0.002995 -0.034904 -0.082242  0.051529
  0C   1pz       -0.000344 -0.000066  0.004267 -0.016567 -0.000403 -0.081694
  0C   1px        0.000258 -0.000052 -0.019115  0.030559 -0.024631  0.116680
  0C   1py       -0.000341  0.000010  0.018522 -0.006158  0.001752 -0.080680
  0C   2pz        0.001567  0.000799  0.003928  0.001451  0.001118 -0.027882
  0C   2px        0.000670 -0.003267 -0.003152  0.002837 -0.010741  0.028581
  0C   2py        0.000943  0.002304  0.001669  0.013267 -0.005336 -0.019056
  0C   1dz2       0.000218  0.000023 -0.001673  0.000705  0.000054  0.002078
  0C   1dxz       0.000615  0.000464 -0.001433  0.003589  0.001646  0.005572
  0C   1dyz      -0.000501 -0.000294  0.001107 -0.002160 -0.001562 -0.003797
  0C   1dx2y2    -0.000231 -0.000142  0.000357 -0.002625  0.000617 -0.002317
  0C   1dxy       0.000759  0.000479 -0.003520  0.002690  0.001908  0.005670
  1S   1s        -0.000000 -0.000985 -0.036306  0.033605  0.000000  0.056964
  1S   2s        -0.000000 -0.004033 -0.220659  0.207929  0.000000  0.359847
  1S   3s         0.000000  0.008581  0.301098 -0.269970 -0.000000 -0.545729
  1S   4s        -0.000000 -0.022942  0.064354 -0.204645 -0.000000 -0.191827
  1S   1pz        0.000000  0.747056 -0.062584  0.010829  0.000000  0.001692
  1S   1px       -0.980858  0.000000 -0.000000  0.000000 -0.061447  0.000000
  1S   1py       -0.000000  0.635455  0.045554  0.063126  0.000000  0.009266
  1S   2pz       -0.000000 -0.041411 -0.097709  0.015150  0.000000  0.010480
  1S   2px        0.053436 -0.000000 -0.000000  0.000000 -0.100340  0.000000
  1S   2py        0.000000 -0.035274  0.070665  0.100114  0.000000  0.015965
  1S   3pz        0.000000  0.016261 -0.044490  0.057182  0.000000 -0.015703
  1S   3px       -0.011574 -0.000000 -0.000000  0.000000 -0.087407  0.000000
  1S   3py        0.000000  0.009062  0.023351  0.082937 -0.000000  0.013447
  1S   1dz2       0.000000 -0.000006  0.015637  0.011277 -0.000000  0.002759
  1S   1dxz      -0.000718  0.000000  0.000000 -0.000000  0.027577 -0.000000
  1S   1dyz       0.000000  0.000878 -0.039554 -0.031629  0.000000 -0.000556
  1S   1dx2y2    -0.000000  0.000277 -0.017138 -0.015207  0.000000 -0.000219
  1S   1dxy      -0.000404  0.000000  0.000000 -0.000000  0.025684 -0.000000
  2O   1s        -0.000000 -0.000097  0.260200  0.112992  0.000000  0.108235
  2O   2s        -0.000000 -0.001438  0.535876  0.237845  0.000000  0.229521
  2O   3s         0.000000  0.007402  0.297530  0.197060  0.000000  0.210364
  2O   1pz       -0.000000 -0.000102  0.094051 -0.000202 -0.000000 -0.139880
  2O   1px       -0.000152  0.000000  0.000000  0.000000 -0.035468  0.000000
  2O   1py        0.000000  0.000147 -0.096014  0.033017  0.000000  0.123635
  2O   2pz        0.000000  0.001497  0.033036  0.006421  0.000000 -0.067201
  2O   2px        0.000963 -0.000000 -0.000000 -0.000000 -0.017493  0.000000
  2O   2py       -0.000000 -0.002760 -0.037386  0.005082 -0.000000  0.054831
  2O   1dz2      -0.000000  0.000233  0.003207  0.001978 -0.000000 -0.002456
  2O   1dxz      -0.000213  0.000000  0.000000  0.000000 -0.001525  0.000000
  2O   1dyz       0.000000 -0.000059 -0.011835  0.000231 -0.000000  0.007082
  2O   1dx2y2    -0.000000  0.000082 -0.006017  0.001239 -0.000000  0.003200
  2O   1dxy       0.000255 -0.000000  0.000000 -0.000000  0.003490  0.000000
  3C   1s        -0.000095  0.000036 -0.026602  0.156401 -0.187033 -0.087170
  3C   2s        -0.000317 -0.000259  0.052425 -0.328099  0.400329  0.186447
  3C   3s        -0.001437  0.010703  0.002995 -0.034904  0.082242  0.051529
  3C   1pz        0.000344 -0.000066  0.004267 -0.016567  0.000403 -0.081694
  3C   1px        0.000258  0.000052  0.019115 -0.030559 -0.024631 -0.116680
  3C   1py        0.000341  0.000010  0.018522 -0.006158 -0.001752 -0.080680
  3C   2pz       -0.001567  0.000799  0.003928  0.001451 -0.001118 -0.027882
  3C   2px        0.000670  0.003267  0.003152 -0.002837 -0.010741 -0.028581
  3C   2py       -0.000943  0.002304  0.001669  0.013267  0.005336 -0.019056
  3C   1dz2      -0.000218  0.000023 -0.001673  0.000705 -0.000054  0.002078
  3C   1dxz       0.000615 -0.000464  0.001433 -0.003589  0.001646 -0.005572
  3C   1dyz       0.000501 -0.000294  0.001107 -0.002160  0.001562 -0.003797
  3C   1dx2y2     0.000231 -0.000142  0.000357 -0.002625 -0.000617 -0.002317
  3C   1dxy       0.000759 -0.000479  0.003520 -0.002690  0.001908 -0.005670
  4H   1s        -0.000557 -0.000535  0.009684 -0.090542 -0.135252  0.098821
  4H   2s         0.000327 -0.000998  0.001382 -0.017210 -0.007950  0.017112
  4H   1pz        0.000117  0.000003 -0.000603  0.002234  0.003710 -0.004225
  4H   1px       -0.000290  0.000257 -0.001908  0.011206  0.013181 -0.006677
  4H   1py        0.000295 -0.000018 -0.000273  0.005147  0.007910 -0.007155
  5H   1s        -0.000115 -0.000434  0.006962 -0.097519 -0.127186  0.097093
  5H   2s        -0.000059 -0.000384  0.001052 -0.005462 -0.018945  0.018161
  5H   1pz       -0.000049  0.000132 -0.000458  0.004564  0.006380 -0.006036
  5H   1px       -0.000195 -0.000031 -0.000382  0.000183 -0.000841  0.002894
  5H   1py       -0.000117  0.000003  0.001598 -0.011574 -0.014528  0.008053
  6H   1s         0.000218 -0.000490  0.012717 -0.092409 -0.122725  0.113824
  6H   2s         0.000564 -0.001068  0.002615 -0.009605 -0.015759  0.019802
  6H   1pz       -0.000023  0.000033  0.001945 -0.011887 -0.015243  0.010419
  6H   1px       -0.000106 -0.000144 -0.000170 -0.001154 -0.003088  0.003341
  6H   1py       -0.000063  0.000141  0.000854 -0.000372 -0.000235 -0.000738
  7H   1s         0.000115 -0.000434  0.006962 -0.097519  0.127186  0.097093
  7H   2s         0.000059 -0.000384  0.001052 -0.005462  0.018945  0.018161
  7H   1pz        0.000049  0.000132 -0.000458  0.004564 -0.006380 -0.006036
  7H   1px       -0.000195  0.000031  0.000382 -0.000183 -0.000841 -0.002894
  7H   1py        0.000117  0.000003  0.001598 -0.011574  0.014528  0.008053
  8H   1s         0.000557 -0.000535  0.009684 -0.090542  0.135252  0.098821
  8H   2s        -0.000327 -0.000998  0.001382 -0.017210  0.007950  0.017112
  8H   1pz       -0.000117  0.000003 -0.000603  0.002234 -0.003710 -0.004225
  8H   1px       -0.000290 -0.000257  0.001908 -0.011206  0.013181  0.006677
  8H   1py       -0.000295 -0.000018 -0.000273  0.005147 -0.007910 -0.007155
  9H   1s        -0.000218 -0.000490  0.012717 -0.092409  0.122725  0.113824
  9H   2s        -0.000564 -0.001068  0.002615 -0.009605  0.015759  0.019802
  9H   1pz        0.000023  0.000033  0.001945 -0.011887  0.015243  0.010419
  9H   1px       -0.000106  0.000144  0.000170  0.001154 -0.003088 -0.003341
  9H   1py        0.000063  0.000141  0.000854 -0.000372  0.000235 -0.000738
                     12        13        14        15        16        17   
                  -0.50324  -0.49906  -0.49140  -0.46660  -0.45805  -0.43678
                   2.00000   2.00000   2.00000   2.00000   2.00000   2.00000
                  --------  --------  --------  --------  --------  --------
  0C   1s         0.009289 -0.009998  0.014806 -0.002706 -0.001105 -0.009885
  0C   2s        -0.021760  0.025098 -0.038771  0.006817  0.004675  0.023860
  0C   3s        -0.036502  0.018788 -0.004168  0.004658 -0.019436  0.032490
  0C   1pz       -0.225807 -0.130530  0.097447 -0.334317  0.049947  0.007693
  0C   1px       -0.200875  0.174908 -0.014729 -0.034788  0.004849 -0.312580
  0C   1py        0.011913  0.180259  0.277609  0.104316  0.247278 -0.110434
  0C   2pz       -0.095747 -0.040945  0.018165 -0.138520  0.017789 -0.000960
  0C   2px       -0.076797  0.072760 -0.023770 -0.008308  0.015178 -0.128062
  0C   2py       -0.008595  0.066574  0.111209  0.050856  0.109440 -0.027528
  0C   1dz2       0.006023  0.000832 -0.003153  0.009837 -0.000681  0.004094
  0C   1dxz       0.000831  0.005573 -0.002936  0.001588 -0.002397 -0.006121
  0C   1dyz      -0.000247  0.003912  0.007481  0.002744  0.004533 -0.000020
  0C   1dx2y2     0.001786  0.002563  0.003214  0.003073  0.009220 -0.010230
  0C   1dxy      -0.005436  0.002572 -0.002899  0.000483  0.000818 -0.011243
  1S   1s         0.008167  0.001328  0.000000 -0.000000 -0.001875 -0.000000
  1S   2s         0.052397  0.007793  0.000000 -0.000000 -0.011070 -0.000000
  1S   3s        -0.094895 -0.002117 -0.000000  0.000000 -0.004076  0.000000
  1S   4s         0.006454 -0.042290 -0.000000 -0.000000  0.088750 -0.000000
  1S   1pz       -0.075893 -0.037234 -0.000000  0.000000  0.015562 -0.000000
  1S   1px       -0.000000 -0.000000  0.132704 -0.032589  0.000000  0.098596
  1S   1py       -0.033226  0.101606  0.000000 -0.000000 -0.116704 -0.000000
  1S   2pz       -0.127448 -0.066110 -0.000000  0.000000  0.032065 -0.000000
  1S   2px       -0.000000 -0.000000  0.231476 -0.057040  0.000000  0.178462
  1S   2py       -0.056187  0.176583  0.000000 -0.000000 -0.208941 -0.000000
  1S   3pz       -0.150700 -0.041568  0.000000  0.000000 -0.025828  0.000000
  1S   3px        0.000000  0.000000  0.208202 -0.054401  0.000000  0.142012
  1S   3py       -0.060116  0.151999 -0.000000 -0.000000 -0.158953  0.000000
  1S   1dz2       0.046583  0.019876  0.000000 -0.000000  0.001369 -0.000000
  1S   1dxz       0.000000  0.000000 -0.048180 -0.019903  0.000000 -0.040160
  1S   1dyz       0.022536 -0.033667  0.000000  0.000000  0.045379  0.000000
  1S   1dx2y2    -0.006248  0.016647  0.000000  0.000000  0.055150  0.000000
  1S   1dxy      -0.000000 -0.000000  0.007018  0.027911 -0.000000 -0.015056
  2O   1s        -0.015029 -0.063419 -0.000000  0.000000  0.038498 -0.000000
  2O   2s        -0.031709 -0.134760 -0.000000 -0.000000  0.076293 -0.000000
  2O   3s        -0.054525 -0.156426  0.000000  0.000000  0.092459  0.000000
  2O   1pz       -0.097564  0.209763  0.000000 -0.000000 -0.400227 -0.000000
  2O   1px       -0.000000 -0.000000  0.246956  0.059139 -0.000000  0.226364
  2O   1py       -0.151925 -0.191249 -0.000000  0.000000  0.110635 -0.000000
  2O   2pz       -0.066188  0.105885  0.000000 -0.000000 -0.232106  0.000000
  2O   2px       -0.000000 -0.000000  0.139979  0.044674 -0.000000  0.137035
  2O   2py       -0.086585 -0.112121 -0.000000 -0.000000  0.060536 -0.000000
  2O   1dz2      -0.006922  0.003132 -0.000000 -0.000000 -0.010786 -0.000000
  2O   1dxz      -0.000000 -0.000000  0.008385 -0.000298 -0.000000  0.006832
  2O   1dyz       0.000238 -0.007347 -0.000000 -0.000000  0.009177 -0.000000
  2O   1dx2y2    -0.005236 -0.002420 -0.000000 -0.000000  0.000957 -0.000000
  2O   1dxy       0.000000  0.000000 -0.009357 -0.002325  0.000000 -0.007557
  3C   1s         0.009289 -0.009998 -0.014806  0.002706 -0.001105  0.009885
  3C   2s        -0.021760  0.025098  0.038771 -0.006817  0.004675 -0.023860
  3C   3s        -0.036502  0.018788  0.004168 -0.004658 -0.019436 -0.032490
  3C   1pz       -0.225807 -0.130530 -0.097447  0.334317  0.049947 -0.007693
  3C   1px        0.200875 -0.174908 -0.014729 -0.034788 -0.004849 -0.312580
  3C   1py        0.011913  0.180259 -0.277609 -0.104316  0.247278  0.110434
  3C   2pz       -0.095747 -0.040945 -0.018165  0.138520  0.017789  0.000960
  3C   2px        0.076797 -0.072760 -0.023770 -0.008308 -0.015178 -0.128062
  3C   2py       -0.008595  0.066574 -0.111209 -0.050856  0.109440  0.027528
  3C   1dz2       0.006023  0.000832  0.003153 -0.009837 -0.000681 -0.004094
  3C   1dxz      -0.000831 -0.005573 -0.002936  0.001588  0.002397 -0.006121
  3C   1dyz      -0.000247  0.003912 -0.007481 -0.002744  0.004533  0.000020
  3C   1dx2y2     0.001786  0.002563 -0.003214 -0.003073  0.009220  0.010230
  3C   1dxy       0.005436 -0.002572 -0.002899  0.000483 -0.000818 -0.011243
  4H   1s        -0.165773  0.159418  0.085778 -0.041466  0.101413 -0.263382
  4H   2s        -0.023030  0.021871  0.021722 -0.010415  0.018949 -0.072462
  4H   1pz       -0.003354 -0.006324  0.001492 -0.008770 -0.000129  0.004542
  4H   1px        0.007611 -0.007800 -0.005756  0.001441 -0.006066  0.009255
  4H   1py        0.006129 -0.000287  0.004489  0.004633  0.003054  0.005823
  5H   1s        -0.081057 -0.153283 -0.175736 -0.171097 -0.169989  0.100328
  5H   2s        -0.019130 -0.032557 -0.025276 -0.026320 -0.038024  0.028067
  5H   1pz       -0.003302  0.000712  0.008555 -0.004172  0.006525 -0.003124
  5H   1px       -0.004335  0.005425  0.001229 -0.001874  0.001041 -0.007892
  5H   1py       -0.006830 -0.006578 -0.007268 -0.009794 -0.006220  0.002882
  6H   1s         0.180335  0.084088 -0.095231  0.256910 -0.043158  0.038576
  6H   2s         0.039000  0.015061 -0.027159  0.042924  0.003997  0.003951
  6H   1pz        0.008249  0.004196 -0.006849  0.011873 -0.002822  0.002372
  6H   1px       -0.005824  0.004702 -0.000544  0.002523 -0.000789 -0.007735
  6H   1py        0.002350  0.005396  0.006988  0.004001  0.007691 -0.003537
  7H   1s        -0.081057 -0.153283  0.175736  0.171097 -0.169989 -0.100328
  7H   2s        -0.019130 -0.032557  0.025276  0.026320 -0.038024 -0.028067
  7H   1pz       -0.003302  0.000712 -0.008555  0.004172  0.006525  0.003124
  7H   1px        0.004335 -0.005425  0.001229 -0.001874 -0.001041 -0.007892
  7H   1py       -0.006830 -0.006578  0.007268  0.009794 -0.006220 -0.002882
  8H   1s        -0.165773  0.159418 -0.085778  0.041466  0.101413  0.263382
  8H   2s        -0.023030  0.021871 -0.021722  0.010415  0.018949  0.072462
  8H   1pz       -0.003354 -0.006324 -0.001492  0.008770 -0.000129 -0.004542
  8H   1px       -0.007611  0.007800 -0.005756  0.001441  0.006066  0.009255
  8H   1py        0.006129 -0.000287 -0.004489 -0.004633  0.003054 -0.005823
  9H   1s         0.180335  0.084088  0.095231 -0.256910 -0.043158 -0.038576
  9H   2s         0.039000  0.015061  0.027159 -0.042924  0.003997 -0.003951
  9H   1pz        0.008249  0.004196  0.006849 -0.011873 -0.002822 -0.002372
  9H   1px        0.005824 -0.004702 -0.000544  0.002523  0.000789 -0.007735
  9H   1py        0.002350  0.005396 -0.006988 -0.004001  0.007691  0.003537
                     18        19        20        21        22        23   
                  -0.40758  -0.34585  -0.30750  -0.06924  -0.05554  -0.00913
                   2.00000   2.00000   2.00000   0.00000   0.00000   0.00000
                  --------  --------  --------  --------  --------  --------
  0C   1s        -0.001766 -0.036542 -0.038132 -0.044651 -0.086617 -0.077839
  0C   2s         0.004006  0.092009  0.095597  0.115738  0.212463  0.195822
  0C   3s        -0.011140  0.098910  0.072495  0.336660  0.789628  1.016468
  0C   1pz        0.166603  0.034923  0.095087  0.075129  0.109870 -0.138510
  0C   1px        0.026464 -0.189205 -0.134066 -0.146052 -0.182990  0.113624
  0C   1py       -0.030907  0.151282  0.132361  0.075205  0.150136 -0.141285
  0C   2pz        0.057950  0.054139  0.045058  0.074605  0.086826 -0.310902
  0C   2px        0.020749 -0.098323 -0.080623 -0.217416 -0.284010  0.302333
  0C   2py       -0.001748  0.046261  0.033826  0.148461  0.260123 -0.324037
  0C   1dz2      -0.011170  0.005247 -0.006904 -0.008045 -0.007631 -0.011279
  0C   1dxz       0.002716 -0.005580 -0.001594  0.015682  0.009181 -0.010846
  0C   1dyz      -0.005469  0.006932  0.000894 -0.002871 -0.015990  0.005527
  0C   1dx2y2    -0.001472  0.003116  0.007465 -0.020741  0.005470  0.006061
  0C   1dxy      -0.003841 -0.003737 -0.000957  0.000065  0.010898 -0.014622
  1S   1s         0.020555 -0.000000  0.026052  0.004565 -0.000000 -0.020869
  1S   2s         0.131611 -0.000000  0.168841  0.030519 -0.000000 -0.141876
  1S   3s        -0.192227 -0.000000 -0.260729 -0.057679  0.000000  0.262111
  1S   4s        -0.171584  0.000000 -0.228267 -0.165454 -0.000000  0.455534
  1S   1pz       -0.131598  0.000000 -0.148826 -0.021252  0.000000 -0.035133
  1S   1px       -0.000000  0.069560  0.000000  0.000000 -0.203538  0.000000
  1S   1py       -0.013039  0.000000 -0.054385  0.202648  0.000000 -0.016611
  1S   2pz       -0.233316  0.000000 -0.266043 -0.037203  0.000000 -0.062660
  1S   2px       -0.000000  0.134331  0.000000  0.000000 -0.354683  0.000000
  1S   2py       -0.017553  0.000000 -0.103379  0.357711  0.000000 -0.033767
  1S   3pz       -0.221927 -0.000000 -0.339699 -0.120378  0.000000 -0.284513
  1S   3px       -0.000000  0.081321 -0.000000  0.000000 -1.026371  0.000000
  1S   3py       -0.071322 -0.000000 -0.078194  0.976853  0.000000 -0.090651
  1S   1dz2       0.044074 -0.000000 -0.048471 -0.031799  0.000000  0.018754
  1S   1dxz       0.000000  0.006201  0.000000  0.000000 -0.109286  0.000000
  1S   1dyz      -0.029350  0.000000  0.017597  0.125439  0.000000  0.038869
  1S   1dx2y2     0.011366  0.000000 -0.016673  0.089974  0.000000 -0.001370
  1S   1dxy       0.000000 -0.087324  0.000000 -0.000000 -0.096203  0.000000
  2O   1s        -0.006993 -0.000000  0.001922 -0.062616  0.000000  0.000062
  2O   2s        -0.007131 -0.000000  0.011906 -0.143488 -0.000000  0.016168
  2O   3s        -0.033170  0.000000 -0.047944 -0.397923  0.000000 -0.125058
  2O   1pz       -0.112243 -0.000000  0.356389 -0.247416 -0.000000 -0.098081
  2O   1px       -0.000000 -0.568867 -0.000000 -0.000000  0.141050 -0.000000
  2O   1py       -0.467316 -0.000000  0.286868  0.100381  0.000000  0.051671
  2O   2pz       -0.077068  0.000000  0.241258 -0.283525  0.000000 -0.094075
  2O   2px       -0.000000 -0.389808 -0.000000 -0.000000  0.145727 -0.000000
  2O   2py       -0.289117 -0.000000  0.222760  0.132921 -0.000000  0.069830
  2O   1dz2      -0.010942  0.000000  0.003030  0.005106  0.000000 -0.001509
  2O   1dxz      -0.000000 -0.008360 -0.000000 -0.000000 -0.011347 -0.000000
  2O   1dyz      -0.006952 -0.000000 -0.001213 -0.000143 -0.000000 -0.005408
  2O   1dx2y2    -0.010156 -0.000000  0.001587  0.003325 -0.000000 -0.004019
  2O   1dxy      -0.000000  0.005871 -0.000000  0.000000  0.001658  0.000000
  3C   1s        -0.001766  0.036542 -0.038132 -0.044651  0.086617 -0.077839
  3C   2s         0.004006 -0.092009  0.095597  0.115738 -0.212463  0.195822
  3C   3s        -0.011140 -0.098910  0.072495  0.336660 -0.789628  1.016468
  3C   1pz        0.166603 -0.034923  0.095087  0.075129 -0.109870 -0.138510
  3C   1px       -0.026464 -0.189205  0.134066  0.146052 -0.182990 -0.113624
  3C   1py       -0.030907 -0.151282  0.132361  0.075205 -0.150136 -0.141285
  3C   2pz        0.057950 -0.054139  0.045058  0.074605 -0.086826 -0.310902
  3C   2px       -0.020749 -0.098323  0.080623  0.217416 -0.284010 -0.302333
  3C   2py       -0.001748 -0.046261  0.033826  0.148461 -0.260123 -0.324037
  3C   1dz2      -0.011170 -0.005247 -0.006904 -0.008045  0.007631 -0.011279
  3C   1dxz      -0.002716 -0.005580  0.001594 -0.015682  0.009181  0.010846
  3C   1dyz      -0.005469 -0.006932  0.000894 -0.002871  0.015990  0.005527
  3C   1dx2y2    -0.001472 -0.003116  0.007465 -0.020741 -0.005470  0.006061
  3C   1dxy       0.003841 -0.003737  0.000957 -0.000065  0.010898  0.014622
  4H   1s         0.039559 -0.048560  0.025894 -0.058320  0.048363 -0.055306
  4H   2s         0.001757 -0.042192  0.019635 -0.063297 -0.152550 -0.441604
  4H   1pz        0.004342  0.000941  0.001538  0.007547 -0.000105 -0.007855
  4H   1px       -0.001144 -0.000683 -0.004087 -0.007625 -0.002538 -0.001739
  4H   1py       -0.003400  0.005598  0.003718  0.009031  0.000326 -0.009005
  5H   1s         0.093702 -0.092152 -0.048752  0.108785 -0.001333 -0.051069
  5H   2s         0.035947 -0.060867 -0.042894  0.046339 -0.108447 -0.635450
  5H   1pz        0.002363  0.002913  0.003910 -0.003676  0.006352 -0.010329
  5H   1px        0.001765 -0.005814 -0.003886  0.000796 -0.007620  0.009949
  5H   1py        0.004455 -0.001447  0.001073 -0.001577  0.005401  0.006250
  6H   1s        -0.149976  0.030106 -0.063972 -0.065618 -0.095056 -0.108419
  6H   2s        -0.042510  0.011553 -0.065924 -0.119816 -0.284749 -0.790619
  6H   1pz       -0.005838  0.001874 -0.001331  0.002148  0.002657  0.012769
  6H   1px       -0.002183 -0.003404 -0.001900 -0.009509 -0.009394  0.011786
  6H   1py        0.000924  0.002775  0.001437  0.003107  0.008791 -0.002949
  7H   1s         0.093702  0.092152 -0.048752  0.108785  0.001333 -0.051069
  7H   2s         0.035947  0.060867 -0.042894  0.046339  0.108447 -0.635450
  7H   1pz        0.002363 -0.002913  0.003910 -0.003676 -0.006352 -0.010329
  7H   1px       -0.001765 -0.005814  0.003886 -0.000796 -0.007620 -0.009949
  7H   1py        0.004455  0.001447  0.001073 -0.001577 -0.005401  0.006250
  8H   1s         0.039559  0.048560  0.025894 -0.058320 -0.048363 -0.055306
  8H   2s         0.001757  0.042192  0.019635 -0.063297  0.152550 -0.441604
  8H   1pz        0.004342 -0.000941  0.001538  0.007547  0.000105 -0.007855
  8H   1px        0.001144 -0.000683  0.004087  0.007625 -0.002538  0.001739
  8H   1py       -0.003400 -0.005598  0.003718  0.009031 -0.000326 -0.009005
  9H   1s        -0.149976 -0.030106 -0.063972 -0.065618  0.095056 -0.108419
  9H   2s        -0.042510 -0.011553 -0.065924 -0.119816  0.284749 -0.790619
  9H   1pz       -0.005838 -0.001874 -0.001331  0.002148 -0.002657  0.012769
  9H   1px        0.002183 -0.003404  0.001900  0.009509 -0.009394 -0.011786
  9H   1py        0.000924 -0.002775  0.001437  0.003107 -0.008791 -0.002949
                     24        25        26        27        28        29   
                   0.01799   0.03167   0.04232   0.05186   0.06776   0.07812
                   0.00000   0.00000   0.00000   0.00000   0.00000   0.00000
                  --------  --------  --------  --------  --------  --------
  0C   1s         0.074788  0.001895 -0.079403 -0.058453  0.026613  0.031259
  0C   2s        -0.168054  0.008010  0.179345  0.096892 -0.070840 -0.086756
  0C   3s        -0.921570 -0.131393  1.340167  0.935051 -0.295760 -0.415102
  0C   1pz       -0.227196 -0.125777 -0.006263 -0.126693 -0.097116  0.299231
  0C   1px       -0.045727  0.139032  0.267701 -0.167247  0.108864  0.085957
  0C   1py       -0.054734  0.237407 -0.042077  0.094076  0.288652  0.083751
  0C   2pz       -0.565290 -0.264365 -0.004460 -0.208904 -0.278476  0.771717
  0C   2px       -0.159494  0.417455  0.495793 -0.563264  0.256368  0.228783
  0C   2py       -0.209666  0.570400 -0.088805  0.344771  0.694421  0.173915
  0C   1dz2      -0.028775  0.000916  0.001336  0.002865 -0.010587  0.030455
  0C   1dxz      -0.002368 -0.011475 -0.007530  0.006778 -0.002410  0.001768
  0C   1dyz      -0.000492 -0.010233  0.007215 -0.008349 -0.016947 -0.003228
  0C   1dx2y2     0.013192 -0.020768  0.001898 -0.002589 -0.020564  0.003514
  0C   1dxy       0.002613 -0.014226 -0.011781  0.027237 -0.008759 -0.000393
  1S   1s        -0.020471 -0.006619  0.000000  0.038386  0.000000  0.000000
  1S   2s        -0.137197 -0.044780 -0.000000  0.261518  0.000000  0.000000
  1S   3s         0.150323  0.074051  0.000000 -0.397749 -0.000000 -0.000000
  1S   4s         0.862572  0.197997 -0.000000 -1.335870  0.000000 -0.000000
  1S   1pz       -0.067347 -0.018535  0.000000  0.139754  0.000000  0.000000
  1S   1px       -0.000000  0.000000  0.047996 -0.000000  0.004208 -0.045264
  1S   1py       -0.019725 -0.025181  0.000000  0.011540  0.000000 -0.000000
  1S   2pz       -0.124213 -0.036311  0.000000  0.246703  0.000000  0.000000
  1S   2px       -0.000000  0.000000  0.099216 -0.000000  0.016483 -0.080584
  1S   2py       -0.037611 -0.034725  0.000000  0.024857  0.000000 -0.000000
  1S   3pz       -0.448332 -0.082182  0.000000  1.077626 -0.000000  0.000000
  1S   3px       -0.000000  0.000000  0.159041  0.000000 -0.050826 -0.312266
  1S   3py       -0.106656 -0.278740  0.000000  0.081441  0.000000 -0.000000
  1S   1dz2       0.042652  0.008211  0.000000  0.031697 -0.000000  0.000000
  1S   1dxz      -0.000000  0.000000  0.010730  0.000000 -0.055716  0.040778
  1S   1dyz       0.064448 -0.033170  0.000000 -0.051239 -0.000000 -0.000000
  1S   1dx2y2    -0.040651  0.056214 -0.000000 -0.046075 -0.000000 -0.000000
  1S   1dxy      -0.000000  0.000000  0.017442  0.000000  0.038285 -0.070549
  2O   1s        -0.028615 -0.009822  0.000000  0.056531  0.000000  0.000000
  2O   2s        -0.055753 -0.032225 -0.000000  0.111541  0.000000 -0.000000
  2O   3s        -0.271014  0.015889  0.000000  0.561497 -0.000000  0.000000
  2O   1pz       -0.091768  0.013703 -0.000000  0.124163  0.000000  0.000000
  2O   1px       -0.000000  0.000000  0.030157 -0.000000 -0.083705  0.064950
  2O   1py        0.102796  0.077785 -0.000000 -0.199301 -0.000000 -0.000000
  2O   2pz       -0.122944  0.034681  0.000000  0.227911 -0.000000  0.000000
  2O   2px        0.000000 -0.000000 -0.002316 -0.000000 -0.051395  0.051615
  2O   2py        0.161005  0.050621 -0.000000 -0.305230  0.000000 -0.000000
  2O   1dz2      -0.003410 -0.004786  0.000000 -0.000085  0.000000 -0.000000
  2O   1dxz      -0.000000  0.000000  0.004126 -0.000000  0.000048 -0.007409
  2O   1dyz      -0.001681 -0.001422 -0.000000  0.006028  0.000000  0.000000
  2O   1dx2y2    -0.003118  0.000331 -0.000000  0.006263  0.000000  0.000000
  2O   1dxy       0.000000 -0.000000 -0.001357 -0.000000 -0.006299  0.003232
  3C   1s         0.074788  0.001895  0.079403 -0.058453 -0.026613 -0.031259
  3C   2s        -0.168054  0.008010 -0.179345  0.096892  0.070840  0.086756
  3C   3s        -0.921570 -0.131393 -1.340167  0.935051  0.295760  0.415102
  3C   1pz       -0.227196 -0.125777  0.006263 -0.126693  0.097116 -0.299231
  3C   1px        0.045727 -0.139032  0.267701  0.167247  0.108864  0.085957
  3C   1py       -0.054734  0.237407  0.042077  0.094076 -0.288652 -0.083751
  3C   2pz       -0.565290 -0.264365  0.004460 -0.208904  0.278476 -0.771717
  3C   2px        0.159494 -0.417455  0.495793  0.563264  0.256368  0.228783
  3C   2py       -0.209666  0.570400  0.088805  0.344771 -0.694421 -0.173915
  3C   1dz2      -0.028775  0.000916 -0.001336  0.002865  0.010587 -0.030455
  3C   1dxz       0.002368  0.011475 -0.007530 -0.006778 -0.002410  0.001768
  3C   1dyz      -0.000492 -0.010233 -0.007215 -0.008349  0.016947  0.003228
  3C   1dx2y2     0.013192 -0.020768 -0.001898 -0.002589  0.020564 -0.003514
  3C   1dxy      -0.002613  0.014226 -0.011781 -0.027237 -0.008759 -0.000393
  4H   1s         0.168176 -0.159407 -0.107801  0.062599 -0.104901 -0.087969
  4H   2s         0.930194 -0.783038 -1.181730  0.135751 -0.632247 -0.522490
  4H   1pz       -0.007538 -0.009734 -0.005034 -0.000876 -0.008007  0.006823
  4H   1px        0.014015 -0.009107 -0.011420 -0.002164 -0.007978 -0.004901
  4H   1py        0.003062  0.000717 -0.012711  0.008672  0.003442 -0.005060
  5H   1s         0.035385  0.157766 -0.081227 -0.009587  0.220951 -0.050489
  5H   2s         0.489894  1.027874 -0.625732  0.119057  1.327099 -0.036525
  5H   1pz       -0.006293  0.005843 -0.005986  0.003374  0.007005  0.014542
  5H   1px       -0.002576  0.002229  0.004477 -0.018597  0.009550  0.002015
  5H   1py       -0.012063 -0.011330  0.007418  0.002173 -0.016428  0.004893
  6H   1s        -0.151283 -0.010866 -0.043047 -0.041576 -0.068867  0.226922
  6H   2s        -0.484108 -0.237079 -0.429334 -0.827447 -0.197997  1.452500
  6H   1pz        0.004811  0.003054  0.004826  0.013442 -0.000434 -0.018202
  6H   1px        0.001753  0.012317  0.004839 -0.003439  0.002417  0.007748
  6H   1py       -0.002242  0.009061 -0.003613  0.004572  0.011686  0.003905
  7H   1s         0.035385  0.157766  0.081227 -0.009587 -0.220951  0.050489
  7H   2s         0.489894  1.027874  0.625732  0.119057 -1.327099  0.036525
  7H   1pz       -0.006293  0.005843  0.005986  0.003374 -0.007005 -0.014542
  7H   1px        0.002576 -0.002229  0.004477  0.018597  0.009550  0.002015
  7H   1py       -0.012063 -0.011330 -0.007418  0.002173  0.016428 -0.004893
  8H   1s         0.168176 -0.159407  0.107801  0.062599  0.104901  0.087969
  8H   2s         0.930194 -0.783038  1.181730  0.135751  0.632247  0.522490
  8H   1pz       -0.007538 -0.009734  0.005034 -0.000876  0.008007 -0.006823
  8H   1px       -0.014015  0.009107 -0.011420  0.002164 -0.007978 -0.004901
  8H   1py        0.003062  0.000717  0.012711  0.008672 -0.003442  0.005060
  9H   1s        -0.151283 -0.010866  0.043047 -0.041576  0.068867 -0.226922
  9H   2s        -0.484108 -0.237079  0.429334 -0.827447  0.197997 -1.452500
  9H   1pz        0.004811  0.003054 -0.004826  0.013442  0.000434  0.018202
  9H   1px       -0.001753 -0.012317  0.004839  0.003439  0.002417  0.007748
  9H   1py       -0.002242  0.009061  0.003613  0.004572 -0.011686 -0.003905
                     30        31        32        33        34        35   
                   0.24780   0.31196   0.33256   0.34342   0.35194   0.42085
                   0.00000   0.00000   0.00000   0.00000   0.00000   0.00000
                  --------  --------  --------  --------  --------  --------
  0C   1s         0.016782 -0.022868 -0.036518  0.057142  0.060807  0.027864
  0C   2s        -0.129041  0.185486  0.260254 -0.331717 -0.360119 -0.148834
  0C   3s         0.688271 -0.441788 -0.525330  0.950539  1.128116 -0.259023
  0C   1pz        0.061375  0.249754 -0.028173 -0.037230 -0.205068 -0.161526
  0C   1px        0.246175 -0.124037 -0.198245  0.173306  0.166402  0.330433
  0C   1py        0.094993  0.015868  0.204947 -0.235093 -0.154631 -0.192367
  0C   2pz       -0.054260 -0.705264 -0.025904 -0.084651  0.785771  0.257623
  0C   2px       -0.533160  0.410874  0.574880 -0.524704 -0.641038 -0.028182
  0C   2py       -0.119045 -0.173719 -0.665773  0.867925  0.437202 -0.042461
  0C   1dz2      -0.041040 -0.063904  0.007914 -0.040430  0.045066  0.004003
  0C   1dxz       0.015269 -0.037070 -0.012802  0.010092  0.010455  0.010055
  0C   1dyz       0.006331  0.005650  0.046258 -0.043092  0.021250 -0.003417
  0C   1dx2y2     0.051936 -0.005370  0.060230 -0.033568  0.003585  0.023873
  0C   1dxy       0.032658 -0.030676 -0.024071 -0.002419  0.014332 -0.016395
  1S   1s        -0.011013  0.000000  0.000000 -0.014132 -0.033141  0.041633
  1S   2s        -0.080773  0.000000  0.000000 -0.102000 -0.243819  0.319230
  1S   3s         0.398597 -0.000000 -0.000000  0.585986  1.206999 -1.671945
  1S   4s        -0.986302  0.000000  0.000000 -2.054856 -2.925959  2.295909
  1S   1pz        0.008727 -0.000000 -0.000000  0.007833 -0.053487 -0.167779
  1S   1px        0.000000  0.067416  0.020731  0.000000 -0.000000 -0.000000
  1S   1py        0.022884  0.000000  0.000000 -0.046372  0.056931 -0.093653
  1S   2pz        0.001043 -0.000000 -0.000000 -0.003502 -0.136566 -0.439604
  1S   2px        0.000000  0.221630  0.091802  0.000000 -0.000000 -0.000000
  1S   2py        0.033887 -0.000000  0.000000 -0.104247  0.155363 -0.271113
  1S   3pz        0.331158 -0.000000 -0.000000  0.783070  0.461622 -0.353261
  1S   3px       -0.000000  0.300301  0.373925  0.000000 -0.000000  0.000000
  1S   3py        0.408156  0.000000 -0.000000  0.064530  0.487870  0.359838
  1S   1dz2       0.078958 -0.000000 -0.000000  0.208394 -0.202476  0.090279
  1S   1dxz       0.000000 -0.306772 -0.049483 -0.000000  0.000000  0.000000
  1S   1dyz       0.099767 -0.000000  0.000000 -0.046740 -0.144430  0.002096
  1S   1dx2y2    -0.209946 -0.000000 -0.000000  0.071157  0.037450 -0.093573
  1S   1dxy       0.000000 -0.044627 -0.301475 -0.000000  0.000000 -0.000000
  2O   1s         0.003049  0.000000  0.000000 -0.052859 -0.009306 -0.066116
  2O   2s         0.022910  0.000000  0.000000 -0.254062 -0.036738 -0.204296
  2O   3s         0.041703 -0.000000 -0.000000  0.564458  0.329364 -0.519919
  2O   1pz       -0.031725 -0.000000 -0.000000  0.157374 -0.155574  0.006417
  2O   1px       -0.000000 -0.129861  0.228957  0.000000 -0.000000  0.000000
  2O   1py        0.014602 -0.000000 -0.000000  0.189477  0.063331 -0.028821
  2O   2pz       -0.011546 -0.000000 -0.000000  0.127045  0.039465 -0.225365
  2O   2px       -0.000000  0.001797  0.021551  0.000000 -0.000000 -0.000000
  2O   2py       -0.005964  0.000000  0.000000 -0.103301 -0.055238  0.247903
  2O   1dz2       0.008721  0.000000  0.000000 -0.020473  0.010457 -0.020226
  2O   1dxz      -0.000000  0.004122 -0.003451 -0.000000 -0.000000 -0.000000
  2O   1dyz       0.002002  0.000000 -0.000000  0.004112 -0.026869  0.022866
  2O   1dx2y2    -0.010353  0.000000  0.000000 -0.005096 -0.002112  0.000071
  2O   1dxy      -0.000000 -0.015243  0.015642  0.000000 -0.000000  0.000000
  3C   1s         0.016782  0.022868  0.036518  0.057142  0.060807  0.027864
  3C   2s        -0.129041 -0.185486 -0.260254 -0.331717 -0.360119 -0.148834
  3C   3s         0.688271  0.441788  0.525330  0.950539  1.128116 -0.259023
  3C   1pz        0.061375 -0.249754  0.028173 -0.037230 -0.205068 -0.161526
  3C   1px       -0.246175 -0.124037 -0.198245 -0.173306 -0.166402 -0.330433
  3C   1py        0.094993 -0.015868 -0.204947 -0.235093 -0.154631 -0.192367
  3C   2pz       -0.054260  0.705264  0.025904 -0.084651  0.785771  0.257623
  3C   2px        0.533160  0.410874  0.574880  0.524704  0.641038  0.028182
  3C   2py       -0.119045  0.173719  0.665773  0.867925  0.437202 -0.042461
  3C   1dz2      -0.041040  0.063904 -0.007914 -0.040430  0.045066  0.004003
  3C   1dxz      -0.015269 -0.037070 -0.012802 -0.010092 -0.010455 -0.010055
  3C   1dyz       0.006331 -0.005650 -0.046258 -0.043092  0.021250 -0.003417
  3C   1dx2y2     0.051936  0.005370 -0.060230 -0.033568  0.003585  0.023873
  3C   1dxy      -0.032658 -0.030676 -0.024071  0.002419 -0.014332  0.016395
  4H   1s         0.483055 -0.053585  0.015862  0.043715  0.088417 -0.104146
  4H   2s        -0.518084  0.030833 -0.094302 -0.108521 -0.081749 -0.045731
  4H   1pz       -0.006909 -0.031690  0.013202 -0.023491  0.025761  0.016096
  4H   1px        0.000948  0.007360  0.019043  0.011719  0.016080 -0.022904
  4H   1py       -0.013371  0.000400 -0.030903  0.018744 -0.005232 -0.016768
  5H   1s        -0.197641  0.113421 -0.554082  0.551356 -0.096560 -0.157146
  5H   2s         0.047410 -0.132915  0.430014 -0.210445  0.007073  0.024869
  5H   1pz       -0.012148 -0.029872 -0.006731 -0.008419  0.011336  0.005573
  5H   1px       -0.017834 -0.007466  0.015078  0.006110 -0.006347  0.012988
  5H   1py       -0.009661  0.000502  0.000157 -0.008880 -0.001765  0.021087
  6H   1s        -0.224931 -0.522219  0.027507 -0.191057  0.484110  0.059499
  6H   2s         0.035151  0.385663 -0.097429 -0.042718 -0.239292  0.090295
  6H   1pz       -0.004653 -0.007837  0.016663 -0.006459 -0.004734  0.013079
  6H   1px       -0.023631  0.022407 -0.012972 -0.011210  0.003659  0.000752
  6H   1py       -0.015436 -0.005339 -0.028875  0.029860 -0.021082 -0.001608
  7H   1s        -0.197641 -0.113421  0.554082  0.551356 -0.096560 -0.157146
  7H   2s         0.047410  0.132915 -0.430014 -0.210445  0.007073  0.024869
  7H   1pz       -0.012148  0.029872  0.006731 -0.008419  0.011336  0.005573
  7H   1px        0.017834 -0.007466  0.015078 -0.006110  0.006347 -0.012988
  7H   1py       -0.009661 -0.000502 -0.000157 -0.008880 -0.001765  0.021087
  8H   1s         0.483055  0.053585 -0.015862  0.043715  0.088417 -0.104146
  8H   2s        -0.518084 -0.030833  0.094302 -0.108521 -0.081749 -0.045731
  8H   1pz       -0.006909  0.031690 -0.013202 -0.023491  0.025761  0.016096
  8H   1px       -0.000948  0.007360  0.019043 -0.011719 -0.016080  0.022904
  8H   1py       -0.013371 -0.000400  0.030903  0.018744 -0.005232 -0.016768
  9H   1s        -0.224931  0.522219 -0.027507 -0.191057  0.484110  0.059499
  9H   2s         0.035151 -0.385663  0.097429 -0.042718 -0.239292  0.090295
  9H   1pz       -0.004653  0.007837 -0.016663 -0.006459 -0.004734  0.013079
  9H   1px        0.023631  0.022407 -0.012972  0.011210 -0.003659 -0.000752
  9H   1py       -0.015436  0.005339  0.028875  0.029860 -0.021082 -0.001608
                     36        37        38        39        40        41   
                   0.46059   0.50330   0.51739   0.53431   0.53690   0.54322
                   0.00000   0.00000   0.00000   0.00000   0.00000   0.00000
                  --------  --------  --------  --------  --------  --------
  0C   1s        -0.080075  0.164067 -0.019376  0.065788 -0.027773  0.000899
  0C   2s         0.368743 -1.042459  0.151889 -0.363092  0.184667  0.041585
  0C   3s        -0.531023  2.553658 -0.551785  1.024299 -0.393490 -0.243969
  0C   1pz       -0.000895  0.130839 -0.562561  0.462724  0.224337  0.045326
  0C   1px        0.183950 -0.070576  0.012316  0.082924  0.423052  0.124012
  0C   1py        0.059091  0.350320  0.305593  0.069614  0.165840  0.584291
  0C   2pz        0.094751 -0.144536  1.090794 -0.838480 -0.463693 -0.319287
  0C   2px        0.052279  0.218996  0.021223 -0.190421 -0.773086 -0.474442
  0C   2py        0.008727 -0.666620 -0.686274 -0.260728 -0.165549 -1.322683
  0C   1dz2       0.047817  0.017722 -0.061356  0.063757  0.040814  0.004416
  0C   1dxz      -0.029332  0.019475 -0.007667  0.036119 -0.057959 -0.007474
  0C   1dyz      -0.031422 -0.022910 -0.025035  0.020375 -0.004083 -0.022327
  0C   1dx2y2    -0.034709 -0.019114 -0.040650 -0.008947 -0.029017 -0.070496
  0C   1dxy      -0.077008 -0.001536  0.002882 -0.043484 -0.013021  0.023288
  1S   1s        -0.000000  0.009502  0.000232 -0.000000 -0.005954 -0.000000
  1S   2s        -0.000000  0.072284  0.002735 -0.000000 -0.046681 -0.000000
  1S   3s         0.000000 -0.329444 -0.119783  0.000000  0.271190  0.000000
  1S   4s        -0.000000  0.272070  0.479720 -0.000000 -0.543718 -0.000000
  1S   1pz        0.000000 -0.025260  0.048475 -0.000000  0.093468 -0.000000
  1S   1px       -0.070223 -0.000000  0.000000  0.057627 -0.000000 -0.077450
  1S   1py        0.000000 -0.061519 -0.046854 -0.000000 -0.108285  0.000000
  1S   2pz        0.000000 -0.072728  0.182766 -0.000000  0.295732 -0.000000
  1S   2px       -0.179802 -0.000000  0.000000  0.194348 -0.000000 -0.290679
  1S   2py        0.000000 -0.204196 -0.150377 -0.000000 -0.357555  0.000000
  1S   3pz        0.000000  0.012024 -0.616679  0.000000 -0.031688  0.000000
  1S   3px       -0.060163 -0.000000 -0.000000 -0.031393  0.000000  0.898523
  1S   3py       -0.000000  0.325415  0.364021  0.000000  0.431060 -0.000000
  1S   1dz2      -0.000000  0.081707 -0.092408  0.000000 -0.389956  0.000000
  1S   1dxz      -0.046384  0.000000 -0.000000 -0.349653  0.000000  0.173531
  1S   1dyz      -0.000000  0.049463 -0.093929  0.000000 -0.065147  0.000000
  1S   1dx2y2     0.000000  0.004203 -0.036689 -0.000000 -0.140691  0.000000
  1S   1dxy      -0.080107 -0.000000  0.000000  0.177633 -0.000000 -0.036501
  2O   1s         0.000000  0.025511  0.020179  0.000000 -0.000002  0.000000
  2O   2s        -0.000000  0.113090  0.106113  0.000000 -0.024053  0.000000
  2O   3s         0.000000 -0.184561 -0.398940 -0.000000 -0.015328  0.000000
  2O   1pz        0.000000 -0.035771 -0.005068 -0.000000 -0.030613  0.000000
  2O   1px       -0.079362  0.000000  0.000000 -0.071269  0.000000  0.198146
  2O   1py       -0.000000 -0.011788 -0.093556 -0.000000 -0.187291  0.000000
  2O   2pz        0.000000 -0.008519 -0.137116  0.000000  0.005458  0.000000
  2O   2px        0.091714 -0.000000  0.000000 -0.016103 -0.000000 -0.109003
  2O   2py       -0.000000 -0.020227  0.094115 -0.000000  0.048896 -0.000000
  2O   1dz2       0.000000 -0.011109  0.012187 -0.000000  0.012180 -0.000000
  2O   1dxz      -0.006028 -0.000000  0.000000  0.024091 -0.000000 -0.002251
  2O   1dyz      -0.000000  0.008109  0.011696  0.000000  0.024338 -0.000000
  2O   1dx2y2     0.000000 -0.003558  0.008111 -0.000000  0.023465 -0.000000
  2O   1dxy       0.004771  0.000000 -0.000000 -0.021632  0.000000  0.027319
  3C   1s         0.080075  0.164067 -0.019376 -0.065788 -0.027773 -0.000899
  3C   2s        -0.368743 -1.042459  0.151889  0.363092  0.184667 -0.041585
  3C   3s         0.531023  2.553658 -0.551785 -1.024299 -0.393490  0.243969
  3C   1pz        0.000895  0.130839 -0.562561 -0.462724  0.224337 -0.045326
  3C   1px        0.183950  0.070576 -0.012316  0.082924 -0.423052  0.124012
  3C   1py       -0.059091  0.350320  0.305593 -0.069614  0.165840 -0.584291
  3C   2pz       -0.094751 -0.144536  1.090794  0.838480 -0.463693  0.319287
[...]
      9       0.000000   0.000000   0.000000   0.000000   0.000000   0.000000
     10       0.000000   0.000000   0.000000   0.000000   0.000000   0.000000
     11       0.000000   0.000000   0.000000   0.000000   0.000000   0.000000
     12       0.000000   0.000000   0.000000   0.000000   0.000000   0.000000
     13       0.000000   0.000000   0.000000   0.000000   0.000000   0.000000
     14       0.000000   0.000000   0.000000   0.000000   0.000000   0.000000
     15       0.000000   0.000000   0.000000   0.000000   0.000000   0.000000
     16       0.000000   0.000000   0.000000   0.000000   0.000000   0.000000
     17       0.000000   0.000000   0.000000   0.000000   0.000000   0.000000
     18       0.000000   0.000000   0.000000   0.000000   0.000000   0.000000
     19       0.000000   0.000000   0.000000   0.000000   0.000000   0.000000
     20       0.000000   0.000000   0.000000   0.000000   0.000000   0.000000
     21       0.000000   0.000000   0.000000   0.000000   0.000000   0.000000
     22       0.000000   0.000000   0.000000   0.000000   0.000000   0.000000
     23       0.000000   0.000000   0.000000   0.000000   0.000000   0.000000
     24       0.000000   0.000000   0.000000   0.000000   0.000000   0.000000
     25       0.000000   0.000000   0.000000   0.000000   0.000000   0.000000
     26       0.000000   0.000000   0.000000   0.000000   0.000000   0.000000
     27       0.000000   0.000000   0.000000   0.000000   0.000000   0.000000
     28       0.000000   0.000000   0.000000   0.000000   0.000000   0.000000
     29       0.000000   0.000000   0.000000   0.000000   0.000000   0.000000
                  6          7          8          9         10         11    
      0      -0.002183  -0.010110  -0.161830   0.071688   0.123618  -0.275949
      1      -0.019647  -0.009680  -0.142263  -0.170831  -0.055901   0.176852
      2       0.024507   0.022037  -0.027511   0.049634   0.074231   0.097760
      3       0.000042   0.000007   0.000100   0.111249   0.000065   0.000861
      4       0.000001   0.016669   0.087327  -0.000120  -0.024793  -0.143646
      5      -0.000000   0.002272  -0.006261   0.000117  -0.162354  -0.124532
      6       0.001384  -0.000025  -0.000329  -0.345636  -0.000188  -0.000072
      7       0.000001  -0.012565   0.126700  -0.000307   0.167342  -0.037572
      8       0.000001  -0.044260   0.063892  -0.000176   0.139374   0.043276
      9      -0.002181   0.010123   0.161979   0.071410  -0.123550   0.274215
     10       0.019645  -0.009653  -0.141923   0.171350  -0.055730   0.175218
     11      -0.024507   0.022032  -0.027598  -0.049662   0.074171   0.097011
     12      -0.037131   0.035298  -0.011412   0.175795   0.061565  -0.319103
     13       0.190321  -0.241188  -0.350656  -0.388150  -0.053788   0.197460
     14      -0.297433   0.350717  -0.153644   0.127345   0.308956   0.209499
     15       0.215455  -0.264135  -0.374670  -0.230593  -0.049707  -0.287291
     16       0.132651  -0.149348  -0.085992  -0.119348   0.022635   0.221943
     17       0.349223  -0.278264   0.084072   0.152625   0.235116   0.190612
     18      -0.163982   0.173267  -0.259702   0.176678   0.468925  -0.056253
     19      -0.394692   0.340296  -0.265195  -0.272683  -0.237953   0.066722
     20       0.065495  -0.019873  -0.009280   0.044553   0.047764   0.078154
     21       0.215463   0.264104   0.374246  -0.231903   0.049428   0.283524
     22      -0.132654  -0.149327  -0.085746   0.119665   0.022755   0.219698
     23      -0.349225  -0.278280   0.083804  -0.153044   0.234949   0.188635
     24      -0.037131  -0.035274   0.011742   0.175898  -0.061353   0.318414
     25      -0.190329  -0.241133  -0.349920   0.389402  -0.053339   0.197605
     26       0.297436   0.350695  -0.153899  -0.127492   0.308827   0.208815
     27      -0.163982  -0.173239   0.260049   0.176636  -0.468739   0.055140
     28       0.394692   0.340330  -0.264694   0.273606  -0.237651   0.066506
     29      -0.065495  -0.019878  -0.009359  -0.044582   0.047712   0.077371
                 12         13         14         15         16         17    
      0       0.199991   0.055916  -0.042950  -0.030740   0.069247  -0.027535
      1      -0.192708   0.034318  -0.054499  -0.072722   0.053567  -0.032405
      2      -0.086544   0.049466   0.087194   0.077410   0.066455   0.060239
      3      -0.202775  -0.026808   0.054368  -0.000007  -0.000005   0.000005
      4      -0.000533  -0.000003   0.000005  -0.011822  -0.033874   0.287178
      5      -0.000467  -0.000001   0.000002  -0.035898  -0.042513  -0.212263
      6       0.019936   0.006209  -0.042625   0.000002  -0.000001   0.000006
      7      -0.000152  -0.000002   0.000008   0.099416   0.006444  -0.537211
      8       0.000168   0.000000  -0.000002  -0.012766   0.013575   0.374759
      9       0.202013   0.055929  -0.042974   0.030752  -0.069238   0.027533
     10       0.194021  -0.034310   0.054480  -0.072723   0.053573  -0.032413
     11       0.087257  -0.049464  -0.087189   0.077421   0.066461   0.060242
     12       0.068124   0.313994  -0.143080  -0.153838   0.325794  -0.035347
     13       0.032865  -0.269547   0.197160   0.211821  -0.250397   0.089009
     14      -0.079849  -0.288510  -0.070726  -0.070178  -0.268672  -0.131113
     15       0.468843  -0.176381   0.386067   0.404030  -0.203142   0.293639
     16      -0.271660  -0.019825  -0.207578  -0.232134  -0.006841  -0.163488
     17      -0.244769  -0.069556  -0.230827  -0.251509  -0.068885  -0.222685
     18       0.132016  -0.426951  -0.257354  -0.203313  -0.418230  -0.035318
     19      -0.015172   0.099892   0.318654   0.285848   0.106431   0.157129
     20      -0.091935   0.098878   0.087872   0.071408   0.113994   0.037522
     21       0.470954  -0.176355   0.385993  -0.404056   0.203157  -0.293734
     22       0.273350   0.019836   0.207529  -0.232144  -0.006834  -0.163532
     23       0.246245   0.069569   0.230772  -0.251522  -0.068874  -0.222745
     24       0.070544   0.314010  -0.143116   0.153867  -0.325774   0.035295
     25      -0.031314   0.269558  -0.197176   0.211855  -0.250368   0.088933
     26       0.081482   0.288519   0.070682  -0.070177  -0.268665  -0.131145
     27       0.132326  -0.426936  -0.257330   0.203350   0.418268   0.035239
     28       0.015644  -0.099884  -0.318633   0.285891   0.106464   0.157062
     29       0.092501  -0.098878  -0.087865   0.071422   0.114000   0.037517
                 18         19         20         21         22         23    
      0      -0.065704   0.060598  -0.030919   0.030176   0.007228   0.008081
      1       0.052698  -0.057045  -0.021070   0.020359   0.029879   0.025337
      2       0.034189  -0.032589  -0.026383   0.020284  -0.033511  -0.034043
      3      -0.003633   0.000004  -0.004782   0.000000   0.003003   0.000000
      4       0.000006   0.005855  -0.000000   0.003018   0.000000   0.003780
      5       0.000001  -0.005677  -0.000000   0.004919  -0.000000  -0.007248
      6       0.000900  -0.000003   0.001170  -0.000000  -0.001227  -0.000000
      7      -0.000007  -0.010683   0.000000  -0.001480  -0.000000  -0.000624
      8       0.000003   0.009186   0.000000  -0.002076   0.000000   0.003964
      9      -0.065704  -0.060604  -0.030919  -0.030176   0.007227  -0.008081
     10      -0.052705  -0.057044   0.021071   0.020358  -0.029879   0.025338
     11      -0.034196  -0.032593   0.026383   0.020284   0.033511  -0.034043
     12       0.202451  -0.207505   0.118776  -0.133215  -0.009403  -0.012489
     13      -0.302243   0.306361  -0.274573   0.277430  -0.184999  -0.183822
     14      -0.171562   0.156051   0.000866   0.031011   0.472314   0.473574
     15       0.321633  -0.311356   0.263076  -0.262806   0.244580   0.255160
     16      -0.100694   0.097764   0.178771  -0.171275   0.014953   0.019849
     17      -0.247741   0.253810   0.399402  -0.386372  -0.031694  -0.014385
     18       0.309465  -0.297061   0.053314  -0.063069  -0.359322  -0.368733
     19      -0.243370   0.267285   0.376505  -0.384985  -0.221805  -0.193101
     20      -0.001287  -0.004135  -0.055682   0.051914   0.034264   0.030259
     21       0.321625   0.311353   0.263077   0.262806   0.244580  -0.255160
     22       0.100692   0.097760  -0.178771  -0.171276  -0.014953   0.019848
     23       0.247739   0.253804  -0.399407  -0.386368   0.031696  -0.014385
     24       0.202462   0.207491   0.118778   0.133213  -0.009403   0.012488
     25       0.302244   0.306354   0.274573   0.277430   0.185000  -0.183822
     26       0.171565   0.156044  -0.000866   0.031010  -0.472315   0.473572
     27       0.309455   0.297059   0.053313   0.063069  -0.359323   0.368732
     28       0.243369   0.267274  -0.376509  -0.384982   0.221808  -0.193100
     29       0.001282  -0.004141   0.055684   0.051911  -0.034264   0.030259
                 24         25         26         27         28         29    
      0      -0.019215   0.020002   0.001743  -0.004443  -0.045073  -0.044909
      1       0.020193  -0.018798   0.039016   0.034263  -0.039591  -0.044322
      2       0.011950  -0.012814  -0.055474  -0.058151  -0.029997  -0.022694
      3       0.000116   0.000000   0.000036  -0.000000  -0.000270   0.000000
      4       0.000000   0.000091   0.000000   0.000231  -0.000000  -0.000334
      5       0.000000  -0.000086  -0.000000  -0.000497  -0.000000  -0.000022
      6       0.000027  -0.000000  -0.000013   0.000000   0.000131   0.000000
      7      -0.000000  -0.000271  -0.000000  -0.000550   0.000000   0.000410
      8       0.000000   0.000177   0.000000   0.000544  -0.000000  -0.000194
      9      -0.019217  -0.019999   0.001742   0.004445  -0.045066   0.044916
     10      -0.020195  -0.018796  -0.039015   0.034261   0.039585  -0.044329
     11      -0.011952  -0.012812   0.055476  -0.058151   0.029992  -0.022697
     12       0.295594  -0.302576  -0.070229   0.002285   0.511600   0.511151
     13       0.178864  -0.181839  -0.033917   0.006891   0.293848   0.294156
     14       0.084085  -0.085407  -0.029316  -0.008668   0.135130   0.137470
     15      -0.012564   0.012680  -0.010313  -0.010813  -0.002153  -0.001404
     16      -0.396489   0.383633  -0.465125  -0.450135   0.165306   0.227728
     17       0.194153  -0.187587   0.220321   0.212443  -0.086062  -0.115936
     18      -0.056147   0.054876   0.059291   0.058223   0.030880   0.021524
     19      -0.020997   0.022901   0.034015   0.035665   0.012113   0.008296
     20      -0.417049   0.425644   0.467749   0.492715   0.305615   0.250774
     21      -0.012560  -0.012683  -0.010313   0.010813  -0.002152   0.001404
     22       0.396534   0.383586   0.465122  -0.450125  -0.165287   0.227767
     23      -0.194176  -0.187563  -0.220319   0.212438   0.086052  -0.115955
     24       0.295632   0.302539  -0.070216  -0.002304   0.511520  -0.511233
     25      -0.178886  -0.181819   0.033910   0.006902  -0.293802   0.294203
     26      -0.084095  -0.085398   0.029313  -0.008663  -0.135109   0.137493
     27      -0.056149  -0.054873   0.059292  -0.058223   0.030876  -0.021526
     28       0.021000   0.022898  -0.034016   0.035665  -0.012111   0.008297
     29       0.417104   0.425588  -0.467765   0.492718  -0.305561   0.250808


-----------
IR SPECTRUM
-----------

 Mode    freq (cm**-1)   T**2         TX         TY         TZ
-------------------------------------------------------------------
   6:       171.20    0.002468  ( -0.049676  -0.000000  -0.000010)
   7:       220.02    0.925387  (  0.000307   0.108009   0.955887)
   8:       273.27    0.679419  (  0.002876  -0.408798  -0.715748)
   9:       294.97    6.696571  (  2.587772   0.001321   0.001851)
  10:       354.30    5.776206  (  0.001737  -1.447387  -1.918664)
  11:       588.95   12.675520  (  0.020490  -3.492879  -0.689126)
  12:       609.35   26.393635  ( -5.137455  -0.013452  -0.002665)
  13:       842.09    2.152413  ( -1.467110  -0.000120   0.000017)
  14:       873.30    4.420207  (  2.102429   0.000084  -0.000120)
  15:       910.72    4.546201  ( -0.000265  -1.373205  -1.631106)
  16:       970.09   14.846815  ( -0.000194  -3.312484  -1.968315)
  17:      1088.50  102.767668  (  0.000040   9.781956  -2.661016)
  18:      1229.00    1.189709  (  1.090738   0.000513   0.000018)
  19:      1255.31    7.915709  (  0.000204   2.301938   1.617650)
  20:      1369.67    8.131113  (  2.851511  -0.000019  -0.000012)
  21:      1382.83    5.090139  (  0.000009  -1.205542  -1.907042)
  22:      1386.35    0.005044  ( -0.071018   0.000026  -0.000003)
  23:      1405.21   14.796062  (  0.000005  -2.220402   3.140999)
  24:      2968.93    4.644033  ( -2.155002  -0.000151  -0.000040)
  25:      2970.31    6.608815  (  0.000136  -2.496427  -0.613733)
  26:      3093.05    0.036111  (  0.190029   0.000019   0.000026)
  27:      3096.01    7.876975  (  0.000019   1.459419  -2.397305)
  28:      3099.54    0.748128  ( -0.864944  -0.000083  -0.000088)
  29:      3100.21    2.351134  (  0.000071  -1.398957  -0.627737)

The first frequency considered to be a vibration is 6
The total number of vibrations considered is 24


--------------------------
THERMOCHEMISTRY AT 298.15K
--------------------------

Temperature         ... 298.15 K
Pressure            ... 1.00 atm
Total Mass          ... 78.13 AMU

Throughout the following assumptions are being made:
  (1) The electronic state is orbitally nondegenerate
  (2) There are no thermally accessible electronically excited states
  (3) Hindered rotations indicated by low frequency modes are not
      treated as such but are treated as vibrations and this may
      cause some error
  (4) All equations used are the standard statistical mechanics
      equations for an ideal gas
  (5) All vibrations are strictly harmonic

freq.     171.20  E(vib)   ...       0.38 
freq.     220.02  E(vib)   ...       0.33 
freq.     273.27  E(vib)   ...       0.29 
freq.     294.97  E(vib)   ...       0.27 
freq.     354.30  E(vib)   ...       0.22 
freq.     588.95  E(vib)   ...       0.10 
freq.     609.35  E(vib)   ...       0.10 
freq.     842.09  E(vib)   ...       0.04 
freq.     873.30  E(vib)   ...       0.04 
freq.     910.72  E(vib)   ...       0.03 
freq.     970.09  E(vib)   ...       0.03 
freq.    1088.50  E(vib)   ...       0.02 
freq.    1229.00  E(vib)   ...       0.01 
freq.    1255.31  E(vib)   ...       0.01 
freq.    1369.67  E(vib)   ...       0.01 
freq.    1382.83  E(vib)   ...       0.01 
freq.    1386.35  E(vib)   ...       0.00 
freq.    1405.21  E(vib)   ...       0.00 
freq.    2968.93  E(vib)   ...       0.00 
freq.    2970.31  E(vib)   ...       0.00 
freq.    3093.05  E(vib)   ...       0.00 
freq.    3096.01  E(vib)   ...       0.00 
freq.    3099.54  E(vib)   ...       0.00 
freq.    3100.21  E(vib)   ...       0.00 

------------
INNER ENERGY
------------

The inner energy is: U= E(el) + E(ZPE) + E(vib) + E(rot) + E(trans)
    E(el)   - is the total energy from the electronic structure calculation
              = E(kin-el) + E(nuc-el) + E(el-el) + E(nuc-nuc)
    E(ZPE)  - the the zero temperature vibrational energy from the frequency calculation
    E(vib)  - the the finite temperature correction to E(ZPE) due to population
              of excited vibrational states
    E(rot)  - is the rotational thermal energy
    E(trans)- is the translational thermal energy

Summary of contributions to the inner energy U:
Electronic energy                ...   -552.84187100 Eh
Zero point energy                ...      0.07643971 Eh      47.97 kcal/mol
Thermal vibrational correction   ...      0.00300215 Eh       1.88 kcal/mol
Thermal rotational correction    ...      0.00141627 Eh       0.89 kcal/mol
Thermal translational correction ...      0.00141627 Eh       0.89 kcal/mol
-----------------------------------------------------------------------
Total thermal energy                   -552.75959660 Eh


Summary of corrections to the electronic energy:
(perhaps to be used in another calculation)
Total thermal correction                  0.00583470 Eh       3.66 kcal/mol
Non-thermal (ZPE) correction              0.07643971 Eh      47.97 kcal/mol
-----------------------------------------------------------------------
Total correction                          0.08227441 Eh      51.63 kcal/mol


--------
ENTHALPY
--------

The enthalpy is H = U + kB*T
                kB is Boltzmann's constant
Total free energy                 ...   -552.75959660 Eh 
Thermal Enthalpy correction       ...      0.00094421 Eh       0.59 kcal/mol
-----------------------------------------------------------------------
Total Enthalpy                    ...   -552.75865239 Eh


Note: Rotational entropy computed according to Herzberg 
Infrared and Raman Spectra, Chapter V,1, Van Nostrand Reinhold, 1945 
Point Group:  Cs, Symmetry Number:   1  
Rotational constants in cm-1:     0.221856     0.219902     0.134106 

Vibrational entropy computed according to the QRRHO of S. Grimme
Chem.Eur.J. 2012 18 9955


-------
ENTROPY
-------

The entropy contributions are T*S = T*(S(el)+S(vib)+S(rot)+S(trans))
     S(el)   - electronic entropy
     S(vib)  - vibrational entropy
     S(rot)  - rotational entropy
     S(trans)- translational entropy
The entropies will be listed as mutliplied by the temperature to get
units of energy

Electronic entropy                ...      0.00000000 Eh      0.00 kcal/mol
Vibrational entropy               ...      0.00486598 Eh      3.05 kcal/mol
Rotational entropy                ...      0.01188515 Eh      7.46 kcal/mol
Translational entropy             ...      0.01852169 Eh     11.62 kcal/mol
-----------------------------------------------------------------------
Final entropy term                ...      0.03527283 Eh     22.13 kcal/mol

In case the symmetry of your molecule has not been determined correctly
or in case you have a reason to use a different symmetry number we print 
out the resulting rotational entropy values for sn=1,12 :
 --------------------------------------------------------
|  sn= 1 | S(rot)=       0.01188515 Eh      7.46 kcal/mol|
|  sn= 2 | S(rot)=       0.01123070 Eh      7.05 kcal/mol|
|  sn= 3 | S(rot)=       0.01084787 Eh      6.81 kcal/mol|
|  sn= 4 | S(rot)=       0.01057624 Eh      6.64 kcal/mol|
|  sn= 5 | S(rot)=       0.01036555 Eh      6.50 kcal/mol|
|  sn= 6 | S(rot)=       0.01019341 Eh      6.40 kcal/mol|
|  sn= 7 | S(rot)=       0.01004786 Eh      6.31 kcal/mol|
|  sn= 8 | S(rot)=       0.00992179 Eh      6.23 kcal/mol|
|  sn= 9 | S(rot)=       0.00981058 Eh      6.16 kcal/mol|
|  sn=10 | S(rot)=       0.00971110 Eh      6.09 kcal/mol|
|  sn=11 | S(rot)=       0.00962111 Eh      6.04 kcal/mol|
|  sn=12 | S(rot)=       0.00953895 Eh      5.99 kcal/mol|
 --------------------------------------------------------


-------------------
GIBBS FREE ENERGY
-------------------

The Gibbs free energy is G = H - T*S

Total enthalpy                    ...   -552.75865239 Eh 
Total entropy correction          ...     -0.03527283 Eh    -22.13 kcal/mol
-----------------------------------------------------------------------
Final Gibbs free energy         ...   -552.79392521 Eh

For completeness - the Gibbs free energy minus the electronic energy
G-E(el)                           ...      0.04794579 Eh     30.09 kcal/mol


Timings for individual modules:

Sum of individual times         ...       65.842 sec (=   1.097 min)
GTO integral calculation        ...        4.026 sec (=   0.067 min)   6.1 %
SCF iterations                  ...       30.034 sec (=   0.501 min)  45.6 %
SCF Gradient evaluation         ...       10.680 sec (=   0.178 min)  16.2 %
Geometry relaxation             ...        0.304 sec (=   0.005 min)   0.5 %
Analytical frequency calculation...       20.797 sec (=   0.347 min)  31.6 %
                             ****ORCA TERMINATED NORMALLY****
TOTAL RUN TIME: 0 days 0 hours 1 minutes 6 seconds 927 msec
