
                                 *****************
                                 * O   R   C   A *
                                 *****************

           --- An Ab Initio, DFT and Semiempirical electronic structure package ---

                  #######################################################
                  #                        -***-                        #
                  #          Department of theory and spectroscopy      #
                  #               Directorship: Frank Neese             #
                  #        Max Planck Institute fuer Kohlenforschung    #
                  #                Kaiser Wilhelm Platz 1               #
                  #                 D-45470 Muelheim/Ruhr               #
                  #                      Germany                        #
                  #                                                     #
                  #                  All rights reserved                #
                  #                        -***-                        #
                  #######################################################


                         Program Version 4.2.1 -  RELEASE  -


 With contributions from (in alphabetic order):
   Daniel Aravena         : Magnetic Suceptibility
   Michael Atanasov       : Ab Initio Ligand Field Theory (pilot matlab implementation)
   Alexander A. Auer      : GIAO ZORA, VPT2
   Ute Becker             : Parallelization
   Giovanni Bistoni       : ED, misc. LED, open-shell LED, HFLD
   Martin Brehm           : Molecular dynamics
   Dmytro Bykov           : SCF Hessian
   Vijay G. Chilkuri      : MRCI spin determinant printing, contributions to CSF-ICE
   Dipayan Datta          : RHF DLPNO-CCSD density
   Achintya Kumar Dutta   : EOM-CC, STEOM-CC
   Dmitry Ganyushin       : Spin-Orbit,Spin-Spin,Magnetic field MRCI
   Miquel Garcia          : C-PCM Hessian, Gaussian charge scheme
   Yang Guo               : DLPNO-NEVPT2, CIM, IAO-localization
   Andreas Hansen         : Spin unrestricted coupled pair/coupled cluster methods
   Benjamin Helmich-Paris : CASSCF linear response (MC-RPA)
   Lee Huntington         : MR-EOM, pCC
   Robert Izsak           : Overlap fitted RIJCOSX, COSX-SCS-MP3, EOM
   Christian Kollmar      : KDIIS, OOCD, Brueckner-CCSD(T), CCSD density
   Simone Kossmann        : Meta GGA functionals, TD-DFT gradient, OOMP2, MP2 Hessian
   Martin Krupicka        : AUTO-CI
   Lucas Lang             : DCDCAS
   Dagmar Lenk            : GEPOL surface, SMD
   Dimitrios Liakos       : Extrapolation schemes; Compound Job, initial MDCI parallelization
   Dimitrios Manganas     : Further ROCIS development; embedding schemes
   Dimitrios Pantazis     : SARC Basis sets
   Taras Petrenko         : DFT Hessian,TD-DFT gradient, ASA, ECA, R-Raman, ABS, FL, XAS/XES, NRVS
   Peter Pinski           : DLPNO-MP2, DLPNO-MP2 Gradient
   Christoph Reimann      : Effective Core Potentials
   Marius Retegan         : Local ZFS, SOC
   Christoph Riplinger    : Optimizer, TS searches, QM/MM, DLPNO-CCSD(T), (RO)-DLPNO pert. Triples
   Tobias Risthaus        : Range-separated hybrids, TD-DFT gradient, RPA, STAB
   Michael Roemelt        : Original ROCIS implementation
   Masaaki Saitow         : Open-shell DLPNO-CCSD energy and density
   Barbara Sandhoefer     : DKH picture change effects
   Avijit Sen             : IP-ROCIS
   Kantharuban Sivalingam : CASSCF convergence, NEVPT2, FIC-MRCI
   Bernardo de Souza      : ESD, SOC TD-DFT
   Georgi Stoychev        : AutoAux, RI-MP2 NMR
   Willem Van den Heuvel  : Paramagnetic NMR
   Boris Wezisla          : Elementary symmetry handling
   Frank Wennmohs         : Technical directorship


 We gratefully acknowledge several colleagues who have allowed us to
 interface, adapt or use parts of their codes:
   Stefan Grimme, W. Hujo, H. Kruse,             : VdW corrections, initial TS optimization,
                  C. Bannwarth                     DFT functionals, gCP, sTDA/sTD-DF
   Ed Valeev, F. Pavosevic, A. Kumar             : LibInt (2-el integral package), F12 methods
   Garnet Chan, S. Sharma, J. Yang, R. Olivares  : DMRG
   Ulf Ekstrom                                   : XCFun DFT Library
   Mihaly Kallay                                 : mrcc  (arbitrary order and MRCC methods)
   Andreas Klamt, Michael Diedenhofen            : otool_cosmo (COSMO solvation model)
   Jiri Pittner, Ondrej Demel                    : Mk-CCSD
   Frank Weinhold                                : gennbo (NPA and NBO analysis)
   Christopher J. Cramer and Donald G. Truhlar   : smd solvation model
   Lars Goerigk                                  : TD-DFT with DH, B97 family of functionals
   V. Asgeirsson, H. Jonsson                     : NEB implementation
   FAccTs GmbH                                   : IRC, NEB, NEB-TS, Multilevel, MM, QM/MM, CI optimization
   S Lehtola, MJT Oliveira, MAL Marques          : LibXC Library


 Your calculation uses the libint2 library for the computation of 2-el integrals
 For citations please refer to: http://libint.valeyev.net

 Your ORCA version has been built with support for libXC version: 4.2.3
 For citations please refer to: https://tddft.org/programs/libxc/

 This ORCA versions uses:
   CBLAS   interface :  Fast vector & matrix operations
   LAPACKE interface :  Fast linear algebra routines
   SCALAPACK package :  Parallel linear algebra routines




***************************************
The coordinates will be read from file: init.xyz
***************************************


Your calculation utilizes the geometrical counterpoise correction gCP
Please cite in your paper:
H.Kruse, S. Grimme J.Chem.Phys., 136, (2012), 154101 
   

Your calculation utilizes the atom-pairwise dispersion correction
based on tight binding partial charges (D4)
Cite in your paper:
E.Caldeweyher, C.Bannwarth, S.Grimme, J.Chem.Phys., (2017), 147, 034112.
E.Caldeweyher, S.Ehlert, A.Hansen, H.Neugebauer, S.Grimme, J.Chem.Phys., (2018), in progress.
   

----- Orbital basis set information -----
Your calculation utilizes the basis: def2-SVP
   F. Weigend and R. Ahlrichs, Phys. Chem. Chem. Phys. 7, 3297 (2005).

----- AuxJ basis set information -----
Your calculation utilizes the auxiliary basis: def2/J
   F. Weigend, Phys. Chem. Chem. Phys. 8, 1057 (2006).

================================================================================
                                        WARNINGS
                       Please study these warnings very carefully!
================================================================================


WARNING: Geometry Optimization
  ===> : Switching off AutoStart
         For restart on a previous wavefunction, please use MOREAD

INFO   : the flag for use of LIBINT has been found!

================================================================================
                                       INPUT FILE
================================================================================
NAME = opt.inp
|  1> ! revPBE D4 gCP(DFT/TZ) def2-SVP Opt Freq TightOpt TightSCF Grid4 FinalGrid5 LargePrint
|  2> 
|  3> %pal
|  4>  nprocs 8
|  5> end
|  6> 
|  7> *xyzfile 0 1 init.xyz
|  8> 
|  9>                          ****END OF INPUT****
================================================================================

                       *****************************
                       * Geometry Optimization Run *
                       *****************************

Geometry optimization settings:
Update method            Update   .... BFGS
Choice of coordinates    CoordSys .... Z-matrix Internals
Initial Hessian          InHess   .... Almoef's Model

Convergence Tolerances:
Energy Change            TolE     ....  1.0000e-06 Eh
Max. Gradient            TolMAXG  ....  1.0000e-04 Eh/bohr
RMS Gradient             TolRMSG  ....  3.0000e-05 Eh/bohr
Max. Displacement        TolMAXD  ....  1.0000e-03 bohr
RMS Displacement         TolRMSD  ....  6.0000e-04 bohr
Strict Convergence                ....  False
------------------------------------------------------------------------------
                        ORCA OPTIMIZATION COORDINATE SETUP
------------------------------------------------------------------------------

The optimization will be done in new redundant internal coordinates
Making redundant internal coordinates   ...  (new redundants) done
Evaluating the initial hessian          ...  (Almloef) done
Evaluating the coordinates              ...  done
Calculating the B-matrix                .... done
Calculating the G-matrix                .... done
Diagonalizing the G-matrix              .... done
The first mode is                       ....   12
The number of degrees of freedom        ....   21

    -----------------------------------------------------------------
                    Redundant Internal Coordinates


    -----------------------------------------------------------------
         Definition                    Initial Value    Approx d2E/dq
    -----------------------------------------------------------------
      1. B(O   1,C   0)                  1.3999         0.539680   
      2. B(H   2,C   0)                  1.1128         0.331227   
      3. B(H   3,C   0)                  1.1127         0.331267   
      4. B(C   4,C   0)                  1.5210         0.386094   
      5. B(H   5,O   1)                  0.9924         0.461629   
      6. B(H   6,C   4)                  1.1108         0.333652   
      7. B(H   7,C   4)                  1.1105         0.334005   
      8. B(H   8,C   4)                  1.1108         0.333659   
      9. A(H   2,C   0,H   3)          110.0455         0.283351   
     10. A(O   1,C   0,C   4)          109.4384         0.386933   
     11. A(O   1,C   0,H   2)          109.9388         0.337893   
     12. A(H   3,C   0,C   4)          108.7412         0.321645   
     13. A(H   2,C   0,C   4)          108.7205         0.321638   
     14. A(O   1,C   0,H   3)          109.9283         0.337899   
     15. A(C   0,O   1,H   5)          106.0425         0.354187   
     16. A(H   7,C   4,H   8)          108.9178         0.284036   
     17. A(H   6,C   4,H   8)          109.1279         0.283989   
     18. A(C   0,C   4,H   8)          110.0497         0.322024   
     19. A(H   6,C   4,H   7)          108.9171         0.284035   
     20. A(C   0,C   4,H   7)          109.7557         0.322078   
     21. A(C   0,C   4,H   6)          110.0457         0.322023   
     22. D(H   5,O   1,C   0,H   3)    -60.9248         0.023169   
     23. D(H   5,O   1,C   0,H   2)     60.3651         0.023169   
     24. D(H   5,O   1,C   0,C   4)    179.7107         0.023169   
     25. D(H   6,C   4,C   0,H   3)    179.7653         0.011862   
     26. D(H   8,C   4,C   0,H   3)    -59.9382         0.011862   
     27. D(H   7,C   4,C   0,O   1)   -179.9908         0.011862   
     28. D(H   6,C   4,C   0,H   2)     59.9535         0.011862   
     29. D(H   7,C   4,C   0,H   3)     59.9152         0.011862   
     30. D(H   8,C   4,C   0,O   1)     60.1557         0.011862   
     31. D(H   8,C   4,C   0,H   2)   -179.7500         0.011862   
     32. D(H   7,C   4,C   0,H   2)    -59.8966         0.011862   
     33. D(H   6,C   4,C   0,O   1)    -60.1407         0.011862   
    -----------------------------------------------------------------

Number of atoms                         .... 9
Number of degrees of freedom            .... 33

         *************************************************************
         *                GEOMETRY OPTIMIZATION CYCLE   1            *
         *************************************************************
---------------------------------
CARTESIAN COORDINATES (ANGSTROEM)
---------------------------------
  C     -7.785270    2.505440    0.037790
  O     -6.407310    2.752110    0.036380
  H     -8.280560    3.114250   -0.751040
  H     -8.213620    2.751670    1.034800
  C     -8.036310    1.033520   -0.251960
  H     -6.301920    3.720810    0.224390
  H     -7.620260    0.764840   -1.246200
  H     -9.128340    0.831950   -0.252250
  H     -7.554220    0.404570    0.526370

----------------------------
CARTESIAN COORDINATES (A.U.)
----------------------------
  NO LB      ZA    FRAG     MASS         X           Y           Z
   0 C     6.0000    0    12.011  -14.712028    4.734595    0.071413
   1 O     8.0000    0    15.999  -12.108061    5.200734    0.068748
   2 H     1.0000    0     1.008  -15.647991    5.885080   -1.419260
   3 H     1.0000    0     1.008  -15.521492    5.199903    1.955489
   4 C     6.0000    0    12.011  -15.186425    1.953070   -0.476135
   5 H     1.0000    0     1.008  -11.908903    7.031312    0.424036
   6 H     1.0000    0     1.008  -14.400204    1.445338   -2.354977
   7 H     1.0000    0     1.008  -17.250063    1.572158   -0.476683
   8 H     1.0000    0     1.008  -14.275407    0.764527    0.994695

--------------------------------
INTERNAL COORDINATES (ANGSTROEM)
--------------------------------
 C      0   0   0     0.000000000000     0.00000000     0.00000000
 O      1   0   0     1.399864935842     0.00000000     0.00000000
 H      1   2   0     1.112750901640   109.93884277     0.00000000
 H      1   2   3     1.112718237246   109.92830157   238.71008911
 C      1   2   3     1.521027491698   109.43836384   119.34557089
 H      2   1   3     0.992388281974   106.04245052    60.36509714
 H      5   1   2     1.110765376891   110.04572022   299.85925707
 H      5   1   2     1.110477406299   109.75570512   180.00917199
 H      5   1   2     1.110759406667   110.04972346    60.15572870

---------------------------
INTERNAL COORDINATES (A.U.)
---------------------------
 C      0   0   0     0.000000000000     0.00000000     0.00000000
 O      1   0   0     2.645361353221     0.00000000     0.00000000
 H      1   2   0     2.102794459373   109.93884277     0.00000000
 H      1   2   3     2.102732732615   109.92830157   238.71008911
 C      1   2   3     2.874325401474   109.43836384   119.34557089
 H      2   1   3     1.875342071444   106.04245052    60.36509714
 H      5   1   2     2.099042361366   110.04572022   299.85925707
 H      5   1   2     2.098498175812   109.75570512   180.00917199
 H      5   1   2     2.099031079278   110.04972346    60.15572870

---------------------
BASIS SET INFORMATION
---------------------
There are 3 groups of distinct atoms

 Group   1 Type C   : 7s4p1d contracted to 3s2p1d pattern {511/31/1}
 Group   2 Type O   : 7s4p1d contracted to 3s2p1d pattern {511/31/1}
 Group   3 Type H   : 4s1p contracted to 2s1p pattern {31/1}

Atom   0C    basis set group =>   1
Atom   1O    basis set group =>   2
Atom   2H    basis set group =>   3
Atom   3H    basis set group =>   3
Atom   4C    basis set group =>   1
Atom   5H    basis set group =>   3
Atom   6H    basis set group =>   3
Atom   7H    basis set group =>   3
Atom   8H    basis set group =>   3

-------------------------
BASIS SET IN INPUT FORMAT
-------------------------

 # Basis set for element : H 
 NewGTO H 
 S 3 
   1      13.0107010000      0.0334854848
   2       1.9622572000      0.2347218709
   3       0.4445379600      0.8137702853
 S 1 
   1       0.1219496200      1.0000000000
 P 1 
   1       0.8000000000      1.0000000000
  end;

 # Basis set for element : C 
 NewGTO C 
 S 5 
   1    1238.4016938000      0.0055173650
   2     186.2900499200      0.0410888285
   3      42.2511763460      0.1822538213
   4      11.6765579320      0.4682845944
   5       3.5930506482      0.4457581734
 S 1 
   1       0.4024514736      1.0000000000
 S 1 
   1       0.1309018267      1.0000000000
 P 3 
   1       9.4680970621      0.0568883320
   2       2.0103545142      0.3129405934
   3       0.5477100471      0.7606501651
 P 1 
   1       0.1526861379      1.0000000000
 D 1 
   1       0.8000000000      1.0000000000
  end;

 # Basis set for element : O 
 NewGTO O 
 S 5 
   1    2266.1767785000     -0.0053893504
   2     340.8701019100     -0.0402347214
   3      77.3631351670     -0.1800818421
   4      21.4796449400     -0.4682885766
   5       6.6589433124     -0.4469261716
 S 1 
   1       0.8097597567      1.0000000000
 S 1 
   1       0.2553077223      1.0000000000
 P 3 
   1      17.7215043170      0.0626302488
   2       3.8635505440      0.3333113849
   3       1.0480920883      0.7414863830
 P 1 
   1       0.2764154441      1.0000000000
 D 1 
   1       1.2000000000      1.0000000000
  end;

---------------------------------
AUXILIARY/J BASIS SET INFORMATION
---------------------------------
There are 3 groups of distinct atoms

 Group   1 Type C   : 12s5p4d2f1g contracted to 6s4p3d1f1g pattern {711111/2111/211/2/1}
 Group   2 Type O   : 12s5p4d2f1g contracted to 6s4p3d1f1g pattern {711111/2111/211/2/1}
 Group   3 Type H   : 5s2p1d contracted to 3s1p1d pattern {311/2/1}

Atom   0C    basis set group =>   1
Atom   1O    basis set group =>   2
Atom   2H    basis set group =>   3
Atom   3H    basis set group =>   3
Atom   4C    basis set group =>   1
Atom   5H    basis set group =>   3
Atom   6H    basis set group =>   3
Atom   7H    basis set group =>   3
Atom   8H    basis set group =>   3

-------------------------------------
AUXILIARY/J BASIS SET IN INPUT FORMAT
-------------------------------------

 # Auxiliary/J basis set for element : H 
 NewAuxJGTO H 
 S 3 
   1      15.6752927000      0.1007184237
   2       3.6063578000      0.3404257499
   3       1.2080016000      0.6491996172
 S 1 
   1       0.4726794000      1.0000000000
 S 1 
   1       0.2018100000      1.0000000000
 P 2 
   1       2.0281365000      0.5596620919
   2       0.5358730000      0.5596620919
 D 1 
   1       2.2165124000      1.0000000000
  end;

 # Auxiliary/J basis set for element : C 
 NewAuxJGTO C 
 S 7 
   1    1861.0916331000      0.0134602335
   2     642.9939764000      0.0299160374
   3     235.1105725000      0.1008649584
   4      90.7028894000      0.2370970548
   5      36.7794552000      0.3924037254
   6      15.6046273000      0.3195862154
   7       6.8907294000      0.0530104441
 S 1 
   1       3.1478850000     -1.0000000000
 S 1 
   1       1.4777287000      1.0000000000
 S 1 
   1       0.7076466000      1.0000000000
 S 1 
   1       0.3430122000      1.0000000000
 S 1 
   1       0.1669453000      1.0000000000
 P 2 
   1      13.5472892000     -0.6769313712
   2       5.4669419000     -0.3779500978
 P 1 
   1       2.1751721000      1.0000000000
 P 1 
   1       0.8582194000      1.0000000000
 P 1 
   1       0.3376720000      1.0000000000
 D 2 
   1       5.9287253000     -0.3533329857
   2       1.9809209000     -0.7456525731
 D 1 
   1       0.8055417000     -1.0000000000
 D 1 
   1       0.3531244000     -1.0000000000
 F 2 
   1       1.6755626000      0.6311076882
   2       0.5997536000      0.4968166032
 G 1 
   1       1.0024600000     -1.0000000000
  end;

 # Auxiliary/J basis set for element : O 
 NewAuxJGTO O 
 S 7 
   1    2876.8216605000      0.0168151159
   2    1004.7443032000      0.0340137548
   3     369.7579954000      0.1194951309
   4     142.9442404000      0.2664627624
   5      57.8366425000      0.4202764046
   6      24.3864983000      0.2765077335
   7      10.6622662000      0.0057008815
 S 1 
   1       4.8070437000     -1.0000000000
 S 1 
   1       2.2210770000      1.0000000000
 S 1 
   1       1.0447795000      1.0000000000
 S 1 
   1       0.4968425000      1.0000000000
 S 1 
   1       0.2371384000      1.0000000000
 P 2 
   1      64.2613382000     -0.2731534179
   2      16.3006076000     -0.8168011598
 P 1 
   1       4.3550542000      1.0000000000
 P 1 
   1       1.2019554000      1.0000000000
 P 1 
   1       0.3354196000      1.0000000000
 D 2 
   1       9.2146611000     -0.4661230638
   2       2.8435251000     -0.6600908911
 D 1 
   1       0.9955759000     -1.0000000000
 D 1 
   1       0.3649441000     -1.0000000000
 F 2 
   1       2.6420115000      0.5931563945
   2       0.7345613000      0.5931563945
 G 1 
   1       1.3931000000     -1.0000000000
  end;



           ************************************************************
           *        Program running with 8 parallel MPI-processes     *
           *              working on a common directory               *
           ************************************************************
------------------------------------------------------------------------------
                           ORCA GTO INTEGRAL CALCULATION
                           -- RI-GTO INTEGRALS CHOSEN --
------------------------------------------------------------------------------

                         BASIS SET STATISTICS AND STARTUP INFO

Gaussian basis set:
 # of primitive gaussian shells          ...   66
 # of primitive gaussian functions       ...  114
 # of contracted shells                  ...   36
 # of contracted basis functions         ...   72
 Highest angular momentum                ...    2
 Maximum contraction depth               ...    5
Auxiliary gaussian basis set:
 # of primitive gaussian shells          ...  120
 # of primitive gaussian functions       ...  306
 # of contracted shells                  ...   75
 # of contracted aux-basis functions     ...  213
 Highest angular momentum                ...    4
 Maximum contraction depth               ...    7
Ratio of auxiliary to basis functions    ...  2.96
Integral package used                  ... LIBINT
 One Electron integrals                  ... done
 Ordering auxiliary basis shells         ... done
 Integral threshhold             Thresh  ...  2.500e-11
 Primitive cut-off               TCut    ...  2.500e-12
 Pre-screening matrix                    ... done
 Shell pair data                         ... 
 Ordering of the shell pairs             ... done (   0.000 sec) 665 of 666 pairs
 Determination of significant pairs      ... done (   0.000 sec)
 Creation of shell pair data             ... done (   0.000 sec)
 Storage of shell pair data              ... done (   0.015 sec)
 Shell pair data done in (   0.015 sec)
 Computing two index integrals           ... done
 Cholesky decomposition of the V-matrix  ... done


Timings:
 Total evaluation time                   ...   0.139 sec (  0.002 min)
 One electron matrix time                ...   0.010 sec (  0.000 min) =  6.9%
 Schwartz matrix evaluation time         ...   0.092 sec (  0.002 min) = 66.4%
 Two index repulsion integral time       ...   0.001 sec (  0.000 min) =  1.0%
 Cholesky decomposition of V             ...   0.002 sec (  0.000 min) =  1.2%
 Three index repulsion integral time     ...   0.000 sec (  0.000 min) =  0.0%



           ************************************************************
           *        Program running with 8 parallel MPI-processes     *
           *              working on a common directory               *
           ************************************************************
-------------------------------------------------------------------------------
                                 ORCA SCF
-------------------------------------------------------------------------------

------------
SCF SETTINGS
------------
Hamiltonian:
 Density Functional     Method          .... DFT(GTOs)
 Exchange Functional    Exchange        .... PBE
   PBE kappa parameter   XKappa         ....  1.245000
   PBE mue parameter    XMuePBE         ....  0.219520
 Correlation Functional Correlation     .... PBE
   PBE beta parameter  CBetaPBE         ....  0.066725
 LDA part of GGA corr.  LDAOpt          .... PW91-LDA
 Gradients option       PostSCFGGA      .... off
   Density functional embedding theory  .... OFF
   NL short-range parameter             ....  3.700000
 RI-approximation to the Coulomb term is turned on
   Number of auxiliary basis functions  .... 213


General Settings:
 Integral files         IntName         .... opt
 Hartree-Fock type      HFTyp           .... RHF
 Total Charge           Charge          ....    0
 Multiplicity           Mult            ....    1
 Number of Electrons    NEL             ....   26
 Basis Dimension        Dim             ....   72
 Nuclear Repulsion      ENuc            ....     81.6443701594 Eh

Convergence Acceleration:
 DIIS                   CNVDIIS         .... on
   Start iteration      DIISMaxIt       ....    12
   Startup error        DIISStart       ....  0.200000
   # of expansion vecs  DIISMaxEq       ....     5
   Bias factor          DIISBfac        ....   1.050
   Max. coefficient     DIISMaxC        ....  10.000
 Newton-Raphson         CNVNR           .... off
 SOSCF                  CNVSOSCF        .... on
   Start iteration      SOSCFMaxIt      ....   150
   Startup grad/error   SOSCFStart      ....  0.003300
 Level Shifting         CNVShift        .... on
   Level shift para.    LevelShift      ....    0.2500
   Turn off err/grad.   ShiftErr        ....    0.0010
 Zerner damping         CNVZerner       .... off
 Static damping         CNVDamp         .... on
   Fraction old density DampFac         ....    0.7000
   Max. Damping (<1)    DampMax         ....    0.9800
   Min. Damping (>=0)   DampMin         ....    0.0000
   Turn off err/grad.   DampErr         ....    0.1000
 Fernandez-Rico         CNVRico         .... off

SCF Procedure:
 Maximum # iterations   MaxIter         ....   125
 SCF integral mode      SCFMode         .... Direct
   Integral package                     .... LIBINT
 Reset frequency        DirectResetFreq ....    20
 Integral Threshold     Thresh          ....  2.500e-11 Eh
 Primitive CutOff       TCut            ....  2.500e-12 Eh

Convergence Tolerance:
 Convergence Check Mode ConvCheckMode   .... Total+1el-Energy
 Convergence forced     ConvForced      .... 0
 Energy Change          TolE            ....  1.000e-08 Eh
 1-El. energy change                    ....  1.000e-05 Eh
 Orbital Gradient       TolG            ....  1.000e-05
 Orbital Rotation angle TolX            ....  1.000e-05
 DIIS Error             TolErr          ....  5.000e-07


Diagonalization of the overlap matrix:
Smallest eigenvalue                        ... 3.694e-03
Time for diagonalization                   ...    0.002 sec
Threshold for overlap eigenvalues          ... 1.000e-08
Number of eigenvalues below threshold      ... 0
Time for construction of square roots      ...    0.001 sec
Total time needed                          ...    0.003 sec

-------------------
DFT GRID GENERATION
-------------------

General Integration Accuracy     IntAcc      ...  4.670
Radial Grid Type                 RadialGrid  ... Gauss-Chebyshev
Angular Grid (max. acc.)         AngularGrid ... Lebedev-302
Angular grid pruning method      GridPruning ... 3 (G Style)
Weight generation scheme         WeightScheme... Becke
Basis function cutoff            BFCut       ...    1.0000e-11
Integration weight cutoff        WCut        ...    1.0000e-14
Grids for H and He will be reduced by one unit

# of grid points (after initial pruning)     ...  39000 (   0.0 sec)
# of grid points (after weights+screening)   ...  36989 (   0.0 sec)
nearest neighbour list constructed           ...    0.0 sec
Grid point re-assignment to atoms done       ...    0.0 sec
Grid point division into batches done        ...    0.1 sec
Reduced shell lists constructed in    0.1 sec

Total number of grid points                  ...    36989
Total number of batches                      ...      582
Average number of points per batch           ...       63
Average number of grid points per atom       ...     4110
Average number of shells per batch           ...    31.30 (86.94%)
Average number of basis functions per batch  ...    62.95 (87.42%)
Average number of large shells per batch     ...    28.93 (92.44%)
Average number of large basis fcns per batch ...    57.77 (91.78%)
Maximum spatial batch extension              ...  15.33, 10.50, 16.30 au
Average spatial batch extension              ...   0.25,  0.23,  0.27 au

Time for grid setup =    0.195 sec

------------------------------
INITIAL GUESS: MODEL POTENTIAL
------------------------------
Loading Hartree-Fock densities                     ... done
Calculating cut-offs                               ... done
Setting up the integral package                    ... done
Initializing the effective Hamiltonian             ... done
Starting the Coulomb interaction                   ... done (   0.0 sec)
Reading the grid                                   ... done
Mapping shells                                     ... done
Starting the XC term evaluation                    ... done (   0.0 sec)
  promolecular density results
     # of electrons  =     25.997133182
     EX              =    -20.262081974
     EC              =     -0.835394342
     EX+EC           =    -21.097476317
Transforming the Hamiltonian                       ... done (   0.0 sec)
Diagonalizing the Hamiltonian                      ... done (   0.0 sec)
Back transforming the eigenvectors                 ... done (   0.0 sec)
Now organizing SCF variables                       ... done
                      ------------------
                      INITIAL GUESS DONE (   0.3 sec)
                      ------------------
----------------------
INITIAL GUESS ORBITALS
----------------------
                      0         1         2         3         4         5   
                 -18.95775 -10.08097 -10.07070  -1.05220  -0.80050  -0.66235
                   2.00000   2.00000   2.00000   2.00000   2.00000   2.00000
                  --------  --------  --------  --------  --------  --------
  0C   1s         0.000140  0.001807 -0.987852  0.100603 -0.150189 -0.176717
  0C   2s        -0.001074  0.001903 -0.050350 -0.200713  0.311956  0.395787
  0C   3s         0.020017 -0.009733  0.036564 -0.009832  0.074441 -0.000978
  0C   1pz        0.000087 -0.000327 -0.000234 -0.000001 -0.020086  0.019234
  0C   1px        0.000435 -0.000222  0.000763 -0.114207 -0.059733 -0.010454
  0C   1py        0.000512 -0.001649 -0.001014 -0.021198 -0.109988  0.091975
  0C   2pz       -0.000611  0.000614 -0.000511 -0.000313 -0.007600  0.012007
  0C   2px        0.005624  0.001066 -0.004125 -0.016785 -0.021975 -0.009403
  0C   2py       -0.001976  0.003217 -0.003277 -0.004965 -0.041590  0.056996
  0C   1dz2       0.000447 -0.000682 -0.000669  0.011078 -0.003273  0.001916
  0C   1dxz       0.000034  0.000076  0.000015 -0.000647  0.000058 -0.000818
  0C   1dyz      -0.000015  0.000474  0.000316 -0.000818  0.003021 -0.002426
  0C   1dx2y2    -0.000683 -0.001131 -0.000379 -0.013560 -0.008527  0.008778
  0C   1dxy      -0.000102  0.000398  0.000229 -0.009316 -0.000179 -0.003198
  1O   1s        -0.988658  0.000058  0.000139 -0.275716 -0.073313 -0.063538
  1O   2s         0.041850  0.000541 -0.000220 -0.570091 -0.161283 -0.143138
  1O   3s        -0.026646 -0.000809  0.002163 -0.283765 -0.082728 -0.068282
  1O   1pz        0.000290 -0.000032 -0.000020 -0.013982 -0.015356 -0.013144
  1O   1px       -0.001387 -0.000095 -0.000664  0.088890 -0.069709 -0.207209
  1O   1py        0.001208 -0.000177 -0.000220 -0.054253 -0.089860 -0.105670
  1O   2pz        0.000081  0.000270  0.000347  0.000090 -0.003927 -0.001570
  1O   2px        0.006248  0.000646 -0.003855  0.028963 -0.037851 -0.105815
  1O   2py        0.001551  0.001455  0.001029  0.005791 -0.026589 -0.028040
  1O   1dz2      -0.000352  0.000065 -0.000999  0.005617 -0.001088 -0.002156
  1O   1dxz       0.000043 -0.000016 -0.000041  0.000234  0.000259 -0.000896
  1O   1dyz       0.000293 -0.000026  0.000126 -0.001309 -0.000639 -0.001209
  1O   1dx2y2    -0.000848  0.000025  0.001065 -0.003165  0.004555  0.009963
  1O   1dxy       0.000185 -0.000096  0.000316 -0.001239  0.002421 -0.001956
  2H   1s        -0.001220  0.000003  0.003485 -0.029188  0.082698  0.157954
  2H   2s        -0.002118 -0.000045 -0.007773 -0.006071  0.006211  0.025415
  2H   1pz        0.000016  0.000095  0.002008 -0.004481  0.007696  0.012592
  2H   1px       -0.000503  0.000010  0.001363 -0.003108  0.003647  0.006272
  2H   1py        0.000177  0.000500 -0.001322  0.003235 -0.007773 -0.007415
  3H   1s        -0.001222  0.000003  0.003487 -0.029183  0.082703  0.158101
  3H   2s        -0.002114 -0.000045 -0.007778 -0.006137  0.006201  0.025374
  3H   1pz        0.000090  0.000107 -0.002456  0.005597 -0.010357 -0.014906
  3H   1px       -0.000499  0.000010  0.001196 -0.002727  0.002974  0.005250
  3H   1py        0.000162  0.000497 -0.000416  0.001194 -0.004102 -0.001836
  4C   1s         0.000071 -0.987717 -0.002609  0.021781 -0.214965  0.147882
  4C   2s        -0.000435 -0.052131  0.001812 -0.043776  0.449233 -0.328599
  4C   3s        -0.006873  0.045185 -0.009387 -0.007479  0.077811 -0.001333
  4C   1pz       -0.000091  0.000217  0.000359 -0.003763  0.013230  0.029623
  4C   1px       -0.000249  0.000152  0.000345 -0.011357  0.004767  0.016557
  4C   1py       -0.000494  0.001097  0.001829 -0.020617  0.065987  0.148643
  4C   2pz       -0.000546  0.000453 -0.000744 -0.001390  0.002715  0.014891
  4C   2px        0.000344  0.000992 -0.000465  0.003067  0.000132  0.008392
  4C   2py       -0.002613  0.002416 -0.003746 -0.006177  0.013426  0.074773
  4C   1dz2       0.000081 -0.000366 -0.000646  0.001688 -0.003207 -0.003839
  4C   1dxz      -0.000041  0.000046  0.000088 -0.000337  0.000222  0.000282
  4C   1dyz      -0.000062  0.000273  0.000474 -0.000932  0.002555  0.003019
  4C   1dx2y2     0.000188 -0.000694 -0.001201  0.001828 -0.006695 -0.007825
  4C   1dxy      -0.000195  0.000224  0.000437 -0.001890  0.000974  0.001277
  5H   1s        -0.001182 -0.000586 -0.001330 -0.150600 -0.091271 -0.122178
  5H   2s         0.001205  0.000040 -0.000857  0.003535  0.003265 -0.013404
  5H   1pz        0.000545  0.000022  0.000021  0.005122  0.002607  0.003406
  5H   1px       -0.000171 -0.000097  0.000816  0.006559 -0.000170 -0.005418
  5H   1py        0.002720  0.000104  0.000259  0.027068  0.013138  0.016205
  6H   1s        -0.000127  0.003064  0.000043 -0.009167  0.118728 -0.143676
  6H   2s        -0.000225 -0.008304 -0.000310 -0.002481  0.012601 -0.022648
  6H   1pz       -0.000123  0.002446 -0.000153 -0.001730  0.014658 -0.013522
  6H   1px       -0.000175 -0.001164 -0.000063 -0.000162 -0.006059  0.006461
  6H   1py       -0.000254  0.000414 -0.000348 -0.001204  0.004608 -0.000395
  7H   1s         0.000346  0.003303 -0.000035 -0.004496  0.122273 -0.137451
  7H   2s         0.001747 -0.007733 -0.000253  0.000730  0.011633 -0.024668
  7H   1pz        0.000040 -0.000042 -0.000090 -0.000083  0.000139  0.000647
  7H   1px        0.000176  0.002798 -0.000137 -0.001118  0.016630 -0.014359
  7H   1py        0.000228  0.000307 -0.000467 -0.000620  0.003730  0.000554
  8H   1s        -0.000126  0.003065  0.000042 -0.009164  0.118726 -0.143654
  8H   2s        -0.000224 -0.008303 -0.000309 -0.002456  0.012616 -0.022634
  8H   1pz        0.000026 -0.002001  0.000009  0.001130 -0.011228  0.011798
  8H   1px       -0.000170 -0.001330 -0.000057 -0.000057 -0.007023  0.007404
  8H   1py       -0.000284  0.001318 -0.000380 -0.001785  0.009870 -0.005540
                      6         7         8         9        10        11   
                  -0.57982  -0.53263  -0.49292  -0.46112  -0.44458  -0.41417
                   2.00000   2.00000   2.00000   2.00000   2.00000   2.00000
                  --------  --------  --------  --------  --------  --------
  0C   1s         0.038110 -0.000008  0.006141 -0.023558  0.000055  0.003322
  0C   2s        -0.082579  0.000029 -0.015536  0.056202 -0.000081 -0.022833
  0C   3s        -0.019584  0.000082 -0.025796  0.018492 -0.000116  0.049977
  0C   1pz       -0.033186 -0.358573  0.051447 -0.011017 -0.201895  0.064325
  0C   1px        0.288183 -0.012408  0.193104 -0.084875 -0.006245 -0.164735
  0C   1py       -0.115425  0.072299  0.288091 -0.068259  0.039811  0.296074
  0C   2pz       -0.015837 -0.142386  0.023756 -0.001848 -0.070956  0.017370
  0C   2px        0.080731 -0.004964  0.068558  0.007982 -0.002363 -0.065552
  0C   2py       -0.065340  0.028677  0.129610 -0.006953  0.013906  0.076331
  0C   1dz2      -0.009938  0.000290 -0.003109  0.006263 -0.006551  0.013410
  0C   1dxz      -0.003488 -0.000064  0.001260 -0.001282 -0.006735 -0.004115
  0C   1dyz       0.000879  0.000877 -0.001220  0.001855 -0.018802 -0.005442
  0C   1dx2y2     0.015395  0.000218  0.009367 -0.017957 -0.004146  0.006535
  0C   1dxy      -0.011353  0.000018  0.008963 -0.011185  0.000729 -0.023885
  1O   1s         0.031571 -0.000169 -0.062632 -0.029251 -0.000187  0.053981
  1O   2s         0.073115 -0.000344 -0.131207 -0.066190 -0.000347  0.108450
  1O   3s         0.069778 -0.000464 -0.164770 -0.095047 -0.000596  0.182871
  1O   1pz       -0.070213 -0.219652  0.051715  0.024764 -0.286577 -0.073165
  1O   1px       -0.198295 -0.009230 -0.382227  0.135222 -0.012596  0.264961
  1O   1py       -0.391112  0.043555  0.185333  0.156011  0.057731 -0.313278
  1O   2pz       -0.030452 -0.124687  0.028073  0.009934 -0.180454 -0.040419
  1O   2px       -0.083621 -0.005140 -0.205039  0.073517 -0.007796  0.156194
  1O   2py       -0.169147  0.024765  0.100970  0.067586  0.036335 -0.170499
  1O   1dz2       0.000416 -0.001171 -0.004198 -0.000847 -0.001982  0.005077
  1O   1dxz       0.001111  0.010921 -0.002882  0.000458  0.009184  0.000422
  1O   1dyz      -0.002195 -0.001230  0.000604  0.001436 -0.003747 -0.002734
  1O   1dx2y2     0.008629  0.000163  0.006643 -0.005801 -0.000436  0.004112
  1O   1dxy       0.006994 -0.002255 -0.011725  0.001377 -0.002013  0.000985
  2H   1s        -0.137872  0.198323  0.017917  0.037010  0.138279  0.177188
  2H   2s        -0.017130  0.022907  0.005730  0.012229  0.045105  0.054914
  2H   1pz       -0.009931  0.003469  0.002354  0.001897  0.002136  0.012316
  2H   1px       -0.001089  0.007548  0.004086 -0.000891  0.006349  0.001081
  2H   1py        0.005124 -0.008936  0.004512 -0.001851 -0.002473  0.001737
  3H   1s        -0.136872 -0.199152  0.018149  0.036615 -0.140195  0.174285
  3H   2s        -0.017101 -0.023030  0.005747  0.012071 -0.045640  0.053920
  3H   1pz        0.011154  0.007267 -0.000704 -0.002394  0.003495 -0.010634
  3H   1px       -0.000246 -0.007141  0.003970 -0.001092 -0.006132  0.000137
  3H   1py        0.000812  0.006762  0.005114 -0.000998  0.001313  0.006478
  4C   1s         0.004668  0.000039 -0.013402 -0.004036 -0.000052  0.031993
  4C   2s        -0.009082 -0.000058  0.027675  0.012171  0.000176 -0.088028
  4C   3s        -0.041309 -0.000177  0.058773  0.021949 -0.000112 -0.075801
  4C   1pz       -0.008453 -0.278164 -0.064664 -0.006626  0.391122 -0.062878
  4C   1px        0.148396 -0.009530  0.047407  0.469462  0.012511  0.017127
  4C   1py       -0.016628  0.056724 -0.310928  0.043622 -0.078219 -0.314197
  4C   2pz       -0.006810 -0.106809 -0.020435 -0.000940  0.155947 -0.027395
  4C   2px        0.066042 -0.003694  0.001777  0.166382  0.004987  0.030586
  4C   2py       -0.021972  0.021686 -0.101064  0.021712 -0.031300 -0.131531
  4C   1dz2       0.001663 -0.001693  0.006593  0.009925 -0.006317  0.005501
  4C   1dxz       0.001333 -0.006702 -0.000022 -0.000201  0.009173 -0.001314
  4C   1dyz      -0.001212 -0.005859 -0.003591 -0.000601 -0.015286 -0.002622
  4C   1dx2y2     0.001750 -0.001489  0.005759 -0.013368 -0.002866  0.003731
  4C   1dxy       0.006247  0.001150 -0.001316 -0.006838 -0.002413 -0.007843
  5H   1s        -0.244505 -0.000169  0.049500  0.114083  0.000360 -0.176079
  5H   2s        -0.039373 -0.000087 -0.011872  0.029345  0.000023 -0.032579
  5H   1pz        0.005174 -0.007581 -0.000064 -0.002297 -0.010754  0.002351
  5H   1px        0.001670 -0.000339 -0.017901  0.003446 -0.000497  0.009873
  5H   1py        0.026385  0.001523 -0.003805 -0.010758  0.002104  0.014014
  6H   1s         0.037110  0.156026  0.126104  0.142230 -0.271992  0.091305
  6H   2s         0.001534  0.018217  0.020905  0.029363 -0.062266  0.041222
  6H   1pz        0.002784  0.005869  0.008690  0.009799 -0.007301  0.005186
  6H   1px        0.002529 -0.004860 -0.002853  0.009383  0.009216 -0.001765
  6H   1py        0.001857  0.006554 -0.005017  0.002823 -0.005625 -0.006159
  7H   1s        -0.087321 -0.000608  0.020386 -0.376719  0.001573  0.001607
  7H   2s         0.004496 -0.000080 -0.003150 -0.093438  0.000388  0.018827
  7H   1pz       -0.000476 -0.006775 -0.001702 -0.000156  0.011790 -0.001459
  7H   1px       -0.004986 -0.000287  0.003837 -0.016705  0.000495  0.001811
  7H   1py       -0.003313  0.001369 -0.007698 -0.004098 -0.002348 -0.007128
  8H   1s         0.037566 -0.155740  0.126440  0.144755  0.269829  0.093718
  8H   2s         0.001628 -0.018208  0.020917  0.029820  0.061687  0.042092
  8H   1pz       -0.002020  0.002474 -0.009736 -0.008604 -0.003705 -0.007067
  8H   1px        0.002334  0.005211 -0.003549  0.008608 -0.009675 -0.002304
  8H   1py        0.002864 -0.008220 -0.001260  0.006638  0.007873 -0.003612
                     12        13        14        15        16        17   
                  -0.35364  -0.02349   0.00552   0.03202   0.04578   0.05367
                   2.00000   0.00000   0.00000   0.00000   0.00000   0.00000
                  --------  --------  --------  --------  --------  --------
  0C   1s         0.000026  0.048890 -0.069360  0.000140 -0.014351 -0.147423
  0C   2s        -0.000005 -0.111646  0.212257 -0.000240  0.023772  0.363610
  0C   3s        -0.000304 -0.922494  0.388525 -0.004494  0.394861  2.115125
  0C   1pz       -0.247098 -0.018185  0.018531 -0.287540  0.000496  0.020746
  0C   1px       -0.009114  0.252165  0.097384 -0.008941 -0.128255 -0.047745
  0C   1py        0.049434 -0.046656  0.106491  0.058809 -0.018455  0.093573
  0C   2pz       -0.045275 -0.027896  0.078942 -0.576046 -0.020682  0.024912
  0C   2px       -0.001488  0.460430  0.128982 -0.017329 -0.106601 -0.295264
  0C   2py        0.009271 -0.060741  0.406029  0.118732 -0.118377  0.067449
  0C   1dz2      -0.004362  0.013822 -0.001966  0.011667 -0.003776 -0.004993
  0C   1dxz       0.032547 -0.002219 -0.001446 -0.007180  0.003308 -0.001140
  0C   1dyz      -0.005783 -0.001007  0.005958  0.030200 -0.002176  0.003908
  0C   1dx2y2    -0.000123 -0.016004 -0.022953  0.005954  0.013646 -0.008564
  0C   1dxy      -0.006754 -0.018593 -0.010617  0.002587  0.019833 -0.005538
  1O   1s         0.000040 -0.096085 -0.053697 -0.000163 -0.015933 -0.050948
  1O   2s         0.000105 -0.217475 -0.109857 -0.000370 -0.023229 -0.114577
  1O   3s         0.000003 -0.607654 -0.433756 -0.001307 -0.224917 -0.346895
  1O   1pz        0.562678 -0.036416 -0.031201  0.008997 -0.030405 -0.009832
  1O   1px        0.020684  0.064062  0.141038  0.001585 -0.106862  0.104767
  1O   1py       -0.111760 -0.172184 -0.129603 -0.001062 -0.171806 -0.030540
  1O   2pz        0.374684 -0.044894 -0.037612  0.068792 -0.033327 -0.017356
  1O   2px        0.013828  0.056477  0.149726  0.004272 -0.097392  0.136675
  1O   2py       -0.074393 -0.215796 -0.159615 -0.012966 -0.185903 -0.062194
  1O   1dz2       0.002410 -0.000620 -0.004322  0.000882  0.002427 -0.006005
  1O   1dxz      -0.002219  0.001637  0.000096  0.006475 -0.000086  0.000034
  1O   1dyz       0.006353  0.001047  0.000371  0.003593 -0.000341  0.001330
  1O   1dx2y2     0.001231 -0.005501  0.005154  0.001029 -0.002390  0.003518
  1O   1dxy       0.000683  0.007491  0.002963 -0.001169 -0.001657  0.002857
  2H   1s         0.244410  0.067969 -0.024418 -0.149899 -0.049965 -0.113142
  2H   2s         0.102362  0.595792 -0.390072 -0.872761 -0.255600 -1.155275
  2H   1pz        0.002843 -0.009758  0.006807  0.003609  0.000935  0.012712
  2H   1px        0.003641  0.007081  0.011321  0.002518  0.001827  0.010041
  2H   1py       -0.008343  0.009526  0.009052 -0.013483 -0.005152 -0.003859
  3H   1s        -0.245322  0.067292 -0.024838  0.150857 -0.049078 -0.112953
  3H   2s        -0.102726  0.592333 -0.393128  0.878785 -0.251994 -1.154933
  3H   1pz        0.006177  0.012115 -0.003570  0.008868 -0.002959 -0.013893
  3H   1px       -0.003312  0.007893  0.010926 -0.001964  0.001663  0.009047
  3H   1py        0.006479  0.005015  0.011112  0.011056 -0.004292  0.001559
  4C   1s        -0.000166  0.042039 -0.128709 -0.000333  0.014963  0.095427
  4C   2s         0.000416 -0.110639  0.311424  0.000774 -0.034363 -0.193372
  4C   3s         0.000729 -0.344120  1.892164  0.005608 -0.271691 -1.732670
  4C   1pz        0.073341  0.012610 -0.026361 -0.333033  0.018033  0.004318
  4C   1px        0.003090  0.056758  0.015375 -0.011096 -0.408928  0.099804
  4C   1py       -0.013934  0.071922 -0.128193  0.067865  0.023642  0.043747
  4C   2pz       -0.028767  0.048271 -0.058074 -0.700140  0.030973 -0.056678
  4C   2px       -0.001045  0.152259  0.124343 -0.023652 -0.928272  0.296267
  4C   2py        0.006434  0.264744 -0.264698  0.143569  0.004972 -0.214869
  4C   1dz2      -0.004689 -0.001797 -0.014246 -0.012379  0.019358 -0.015602
  4C   1dxz       0.004253  0.002857  0.002473  0.012904 -0.001294  0.000424
  4C   1dyz      -0.011977 -0.003989  0.004872 -0.031189 -0.001583  0.004594
  4C   1dx2y2    -0.002418  0.018779 -0.001235 -0.006007 -0.023508  0.003712
  4C   1dxy      -0.001358  0.017869  0.016652 -0.003746 -0.017396  0.007658
  5H   1s        -0.000122  0.215835  0.090434 -0.000684  0.107458  0.086961
  5H   2s        -0.000042  0.800930  0.422060 -0.002312  0.587292  0.280691
  5H   1pz        0.020257  0.002021  0.000614  0.005302  0.001857 -0.000140
  5H   1px        0.000721  0.004560  0.006079  0.000235 -0.002008  0.008047
  5H   1py       -0.004002  0.011153  0.004233 -0.001113  0.009118  0.000612
  6H   1s        -0.083331 -0.027566 -0.135770 -0.184502  0.107635 -0.004813
  6H   2s        -0.075107  0.165937 -0.964413 -1.023943  0.744864  0.434873
  6H   1pz       -0.002080 -0.003627  0.013787  0.009274 -0.012977 -0.003232
  6H   1px        0.001867  0.004061 -0.003847 -0.006067 -0.007914  0.008649
  6H   1py       -0.002564  0.007541 -0.000203  0.009963 -0.003510 -0.005257
  7H   1s        -0.000376  0.145537  0.019180  0.000988 -0.226550  0.157314
  7H   2s        -0.000264  0.513401 -0.615550  0.002948 -1.377089  1.049786
  7H   1pz        0.004035 -0.000605 -0.002152 -0.006706  0.000348 -0.001060
  7H   1px        0.000138 -0.007294  0.011503 -0.000283  0.017165 -0.013974
  7H   1py       -0.000797 -0.004276 -0.008496  0.001315  0.005172 -0.007625
  8H   1s         0.083218 -0.027910 -0.136064  0.183310  0.109527 -0.004077
  8H   2s         0.074863  0.165235 -0.965871  1.016562  0.756790  0.439853
  8H   1pz       -0.000762  0.005977 -0.012468  0.004142  0.011166  0.000324
  8H   1px       -0.001957  0.004433 -0.004829  0.006606 -0.006907  0.008833
  8H   1py        0.003168  0.005618  0.005161 -0.012550 -0.008521 -0.006019
                     18        19        20        21        22        23   
                   0.07352   0.07534   0.09112   0.31149   0.32562   0.34245
                   0.00000   0.00000   0.00000   0.00000   0.00000   0.00000
                  --------  --------  --------  --------  --------  --------
  0C   1s        -0.052690  0.002573  0.105983 -0.000153 -0.052462  0.097728
  0C   2s         0.122488 -0.005972 -0.268446  0.001305  0.480208 -0.546411
  0C   3s         0.508994 -0.025384 -1.977520 -0.001653 -0.640462  0.846210
  0C   1pz        0.007531 -0.371138  0.097242 -0.026636 -0.065479 -0.034835
  0C   1px        0.395602 -0.033579 -0.119998 -0.000675  0.139501 -0.349043
  0C   1py        0.199946  0.066077  0.453927  0.005097 -0.297564 -0.234960
  0C   2pz       -0.028867 -1.006724  0.334978 -0.056873  0.179778  0.096521
  0C   2px        1.234102 -0.098986 -0.286059 -0.003285 -0.496866  0.110180
  0C   2py        0.331880  0.190493  1.588769  0.011541  0.791791  0.494740
  0C   1dz2       0.027105  0.000582 -0.035046  0.030544 -0.061265  0.004516
  0C   1dxz       0.003122 -0.018795  0.000524 -0.033671  0.001894 -0.006713
  0C   1dyz      -0.001509  0.002052  0.015902  0.077263  0.035828 -0.000561
  0C   1dx2y2    -0.040320  0.001693 -0.016486  0.015014 -0.067118  0.001696
  0C   1dxy       0.003979  0.003723  0.011277  0.010085  0.017733 -0.034243
  1O   1s        -0.044651  0.002054  0.025694  0.000101  0.020792 -0.002575
  1O   2s        -0.073454  0.003255  0.033813  0.000208  0.046751 -0.013692
  1O   3s        -0.609849  0.029033  0.378728  0.001037  0.306778 -0.130953
  1O   1pz        0.028579  0.093134 -0.016890  0.105022 -0.002974  0.020805
  1O   1px        0.347629 -0.013653 -0.076876  0.004083  0.104325 -0.131013
  1O   1py        0.185081 -0.028857 -0.096262 -0.021210  0.007965  0.077314
  1O   2pz        0.042604  0.138277 -0.040142  0.022585 -0.034493 -0.034667
  1O   2px        0.578603 -0.023341 -0.157239  0.000591 -0.074041 -0.026573
  1O   2py        0.287089 -0.043428 -0.225576 -0.004253 -0.183208 -0.177942
  1O   1dz2       0.002159  0.002040 -0.001802  0.003550 -0.004320  0.006429
  1O   1dxz      -0.000624  0.010733 -0.003842  0.006558 -0.002383  0.001423
  1O   1dyz      -0.003660  0.008003  0.001677  0.010853 -0.002976  0.006981
  1O   1dx2y2     0.016627  0.001225 -0.001188  0.002625  0.023308 -0.043964
  1O   1dxy      -0.003421 -0.001722 -0.018457 -0.000916 -0.006165 -0.002948
  2H   1s         0.050802 -0.098705 -0.120986 -0.433021 -0.277198  0.144918
  2H   2s        -0.012713 -1.197590 -0.210277  0.312436  0.273707 -0.315415
  2H   1pz       -0.009756  0.006842  0.018030 -0.015220  0.025304 -0.012189
  2H   1px        0.022704  0.011474 -0.005828  0.010683 -0.003543 -0.021293
  2H   1py        0.007288 -0.005589  0.012077 -0.051069  0.040762  0.014170
  3H   1s         0.059660  0.092436 -0.121126  0.431996 -0.278743  0.145405
  3H   2s         0.099766  1.190227 -0.213787 -0.310824  0.273944 -0.316009
  3H   1pz        0.010978  0.008187 -0.011465  0.006638 -0.007136  0.018314
  3H   1px        0.022327 -0.013096 -0.006899 -0.010962 -0.004680 -0.020132
  3H   1py        0.003441  0.002052  0.018052  0.052934  0.047158  0.008146
  4C   1s        -0.012850  0.000625 -0.068083 -0.000146 -0.071373  0.006058
  4C   2s         0.059990 -0.002937  0.104005  0.001051  0.479997 -0.035199
  4C   3s        -0.015686  0.001311  1.943514 -0.001762 -0.061069  0.294561
  4C   1pz        0.052819  0.288365  0.076968  0.187592  0.101865  0.012924
  4C   1px       -0.136031  0.017074  0.048449  0.007205 -0.039240 -0.158462
  4C   1py        0.157294 -0.066179  0.389473 -0.037096  0.495875  0.032025
  4C   2pz        0.142975  0.899117  0.301501 -0.678086 -0.160254 -0.055835
  4C   2px       -0.629513  0.064286  0.479209 -0.025576  0.274500  0.758323
  4C   2py        0.352647 -0.199624  1.577346  0.136006 -0.744070 -0.128847
  4C   1dz2       0.015915  0.000887  0.018997 -0.032821 -0.037375 -0.082373
  4C   1dxz       0.003293 -0.029496 -0.005315  0.063568  0.002707 -0.000671
  4C   1dyz      -0.009341 -0.000466 -0.014436 -0.077615  0.025854  0.018518
  4C   1dx2y2     0.012794 -0.001856  0.040101 -0.014316 -0.059348  0.049014
  4C   1dxy       0.020644  0.004887 -0.025527 -0.016131  0.015857  0.032009
  5H   1s        -0.197649  0.009641 -0.010149 -0.001654 -0.128519  0.338864
  5H   2s        -0.713152  0.038107  0.025926  0.001301  0.005812 -0.437331
  5H   1pz       -0.001988  0.012377  0.001227  0.011866 -0.004453 -0.000746
  5H   1px        0.001764  0.000351 -0.021878  0.000481 -0.027520 -0.031170
  5H   1py       -0.012610 -0.001798  0.001734 -0.002302 -0.028002 -0.010416
  6H   1s         0.037892  0.138540  0.087786 -0.623223 -0.218366 -0.382455
  6H   2s         0.484494  0.978020  0.026433  0.360669  0.098277  0.128214
  6H   1pz       -0.008605 -0.006304 -0.003236 -0.012486 -0.003702  0.025106
  6H   1px        0.000871  0.014848  0.007739 -0.015961 -0.007812  0.052108
  6H   1py        0.016080 -0.001969  0.014087  0.027812 -0.035249 -0.009164
  7H   1s         0.042388 -0.002152  0.082178 -0.000908 -0.189856  0.659847
  7H   2s        -0.553573  0.026491  0.121996  0.000945  0.223089 -0.343763
  7H   1pz       -0.001089  0.021491  0.005797 -0.049909 -0.000261 -0.004074
  7H   1px        0.003766  0.000628 -0.003330 -0.001852  0.016405  0.002063
  7H   1py       -0.010115 -0.003827  0.028052  0.010174  0.001311 -0.019270
  8H   1s         0.023547 -0.141173  0.088097  0.623311 -0.220585 -0.380788
  8H   2s         0.381685 -1.017645  0.028977 -0.360404  0.099749  0.127336
  8H   1pz        0.013623 -0.005277  0.007925 -0.023421 -0.009696 -0.030444
  8H   1px        0.000180 -0.015309  0.008194  0.014523 -0.008083  0.050085
  8H   1py        0.011868  0.002901  0.011809 -0.020623 -0.033941  0.002138
                     24        25        26        27        28        29   
                   0.37739   0.45167   0.45414   0.47852   0.50306   0.52185
                   0.00000   0.00000   0.00000   0.00000   0.00000   0.00000
                  --------  --------  --------  --------  --------  --------
  0C   1s         0.114695  0.051835  0.001669 -0.155209 -0.001443  0.000238
  0C   2s        -0.666562 -0.197406 -0.005975  0.856476  0.167493 -0.001769
  0C   3s         2.463183  1.591410  0.054889 -2.851731 -0.730984  0.006037
  0C   1pz        0.028680  0.119977 -0.278387 -0.007931 -0.038485  0.621569
  0C   1px       -0.669681  0.121692 -0.006344 -0.447362  0.006617  0.023796
  0C   1py        0.016515  0.560618  0.078268 -0.125244 -0.188548 -0.126427
  0C   2pz       -0.148223 -0.462125  1.645112  0.101981  0.029211 -1.084860
  0C   2px        1.633430 -0.740188  0.035228  0.689468 -0.055753 -0.041951
  0C   2py       -0.428213 -2.103759 -0.414279  0.639223  0.128327  0.220033
  0C   1dz2      -0.019970 -0.010611 -0.019728 -0.046604  0.011475 -0.026955
  0C   1dxz       0.008717  0.002892  0.061315  0.004343  0.000883  0.106488
  0C   1dyz       0.005286  0.006278 -0.040797  0.009048 -0.006597 -0.053878
  0C   1dx2y2    -0.000022 -0.008110 -0.006683  0.029897  0.010487 -0.007524
  0C   1dxy       0.049469  0.028409 -0.013041  0.042928  0.002562 -0.023855
  1O   1s         0.053518  0.016423  0.000415  0.010460  0.060548 -0.000074
  1O   2s         0.278347  0.025286  0.000237  0.034264  0.245436 -0.000235
  1O   3s        -1.184593  0.165451  0.006050 -0.092815 -0.127174 -0.000570
  1O   1pz       -0.014890  0.057576 -0.288581  0.048030  0.023295 -0.093214
  1O   1px       -0.206907 -0.151755 -0.016821 -0.018217 -0.059351 -0.003760
  1O   1py       -0.109168  0.203811  0.066115  0.237803  0.108846  0.019089
  1O   2pz        0.017913  0.038276 -0.084918 -0.016273 -0.001349  0.138175
  1O   2px        0.299945 -0.073437 -0.005578  0.072227 -0.041060  0.005530
  1O   2py        0.143783  0.160154  0.023352 -0.068270 -0.014485 -0.028108
  1O   1dz2       0.043098  0.021209  0.001211  0.027864  0.018605  0.001953
  1O   1dxz      -0.003743 -0.001634 -0.015475 -0.002688 -0.000393 -0.025357
  1O   1dyz      -0.009088 -0.017660 -0.002351 -0.014982 -0.014366  0.000520
  1O   1dx2y2    -0.024318  0.050513  0.000965  0.028023  0.037758 -0.000748
  1O   1dxy      -0.037104 -0.009167  0.002747 -0.017843 -0.001570  0.005186
  2H   1s         0.072666  0.108759  0.509072 -0.479897  0.203486  0.521969
  2H   2s        -0.135253  0.038989  0.186880  0.917731 -0.017170 -1.301682
  2H   1pz        0.000206  0.005183  0.028219  0.066686 -0.020101 -0.034913
  2H   1px       -0.001100  0.016604 -0.038422  0.013440 -0.001768 -0.066532
  2H   1py       -0.007679  0.021530 -0.046370 -0.046813  0.009975  0.056653
  3H   1s         0.072304  0.145557 -0.501421 -0.479363  0.202562 -0.521453
  3H   2s        -0.135341  0.052323 -0.181587  0.918761 -0.016738  1.297606
  3H   1pz       -0.003139 -0.000600  0.041014 -0.080657  0.022438 -0.058722
  3H   1px       -0.001161  0.013381  0.042123  0.007912 -0.000121  0.062973
  3H   1py       -0.007040  0.019555  0.033732 -0.017111  0.001285 -0.037567
  4C   1s        -0.065789 -0.138877 -0.005134  0.029756  0.185413 -0.000031
  4C   2s         0.411142  0.808712  0.029856 -0.074248 -1.072254  0.000185
  4C   3s        -1.467205 -3.607260 -0.131827  0.859398  2.872368 -0.002384
  4C   1pz        0.037268  0.021931  0.472137 -0.102105  0.070158 -0.420591
  4C   1px        0.300499  0.092723  0.020853  0.018257  0.250220 -0.016486
  4C   1py        0.238471  0.213706 -0.088683 -0.495134  0.389217  0.085618
  4C   2pz       -0.107086 -0.197596 -1.791049  0.246947 -0.082258  0.689414
  4C   2px       -1.200412  0.072732 -0.063603  0.089514 -0.365793  0.027330
  4C   2py       -0.747693 -1.292256  0.316823  1.219945 -0.464822 -0.141261
  4C   1dz2       0.031397 -0.032944  0.014116 -0.046750 -0.002482 -0.020087
  4C   1dxz       0.001713 -0.008792  0.057173 -0.001724 -0.002815  0.087810
  4C   1dyz      -0.004583 -0.001791  0.052207  0.019536 -0.010260 -0.038799
  4C   1dx2y2    -0.031247  0.057973  0.015167 -0.012234  0.054012 -0.005111
  4C   1dxy      -0.007377 -0.011305 -0.010074  0.005100 -0.003455 -0.019551
  5H   1s        -0.138400 -0.664476 -0.024443 -0.534224 -0.513416 -0.000547
  5H   2s        -0.148608  0.976632  0.037236  0.372434  0.631799  0.001077
  5H   1pz        0.001093 -0.016966  0.010278 -0.015675 -0.014681  0.001332
  5H   1px       -0.065889  0.044507  0.002295 -0.040086  0.011357  0.000183
  5H   1py       -0.005306 -0.074020 -0.005058 -0.086996 -0.072053 -0.000492
  6H   1s         0.035202 -0.317171 -0.191796 -0.053662  0.377274 -0.455774
  6H   2s         0.140147  0.592974 -0.629318  0.265338 -0.832714  0.957688
  6H   1pz        0.005095  0.057852 -0.055930  0.027702 -0.059431  0.036747
  6H   1px       -0.021029  0.029456 -0.027159  0.010448  0.046011 -0.041934
  6H   1py        0.039251  0.018382 -0.077129 -0.010575 -0.007517  0.039275
  7H   1s        -0.367915  0.173927  0.005893  0.230104  0.600917 -0.000591
  7H   2s         0.094225  0.189998  0.007710 -0.106471 -1.412999  0.002181
  7H   1pz       -0.009036  0.009470 -0.062103 -0.006015  0.002596 -0.056956
  7H   1px       -0.012339  0.014448 -0.001732 -0.005594 -0.114084 -0.001995
  7H   1py       -0.046760  0.037488  0.014074 -0.030935 -0.008146  0.011686
  8H   1s         0.034869 -0.331106  0.167728 -0.053884  0.376904  0.456269
  8H   2s         0.140544  0.546955  0.671881  0.263630 -0.830557 -0.959137
  8H   1pz        0.012124 -0.046173 -0.026789 -0.030212  0.048336  0.015517
  8H   1px       -0.020774  0.023684  0.025940  0.008260  0.050020  0.043882
  8H   1py        0.037841  0.033062  0.095864  0.000949 -0.029274 -0.049930
                     30        31        32        33        34        35   
                   0.53769   0.55572   0.56004   0.59556   0.75303   0.81990
                   0.00000   0.00000   0.00000   0.00000   0.00000   0.00000
                  --------  --------  --------  --------  --------  --------
  0C   1s         0.082223  0.000049 -0.097225  0.114952 -0.049017 -0.032982
  0C   2s        -0.676596 -0.000212  0.690127 -1.261250  0.990154  0.412154
  0C   3s         2.255925  0.000349 -1.925660  3.602676 -6.631682 -0.356768
  0C   1pz       -0.040950  0.641952  0.122771  0.025773  0.004459 -0.014568
  0C   1px        0.013634  0.024507 -0.326178  0.171374 -0.021207  0.111160
  0C   1py       -0.197263 -0.131131  0.538491  0.157492  0.017927 -0.050918
  0C   2pz        0.027974 -1.547816 -0.275432  0.005602  0.421311  0.088770
  0C   2px       -0.168344 -0.058947  0.550782 -0.434437  0.465465  0.377854
  0C   2py        0.104141  0.315952 -1.238798 -0.047868  2.158874  0.529383
  0C   1dz2       0.024519 -0.011979 -0.034965 -0.020868  0.035099 -0.095643
  0C   1dxz       0.009275  0.026744  0.003966  0.001601 -0.007862 -0.019463
  0C   1dyz      -0.015808 -0.027795  0.013658  0.006579 -0.009681  0.026742
  0C   1dx2y2     0.024280 -0.004910 -0.009642  0.002126 -0.005642  0.056191
  0C   1dxy       0.043006 -0.006650  0.028490  0.015890 -0.051473 -0.054981
  1O   1s        -0.006766  0.000053 -0.035772 -0.070639  0.075034 -0.144481
  1O   2s         0.001613  0.000168 -0.165431 -0.295349  0.376618 -0.695643
  1O   3s        -0.410715  0.000380  0.272015 -0.126510 -0.073616  0.577990
  1O   1pz        0.054043  0.062688 -0.015930  0.024812  0.054668  0.060932
  1O   1px       -0.099348  0.002417  0.000788  0.065326 -0.009106 -0.676156
  1O   1py        0.252865 -0.012815 -0.083236  0.136371  0.266838  0.198119
  1O   2pz       -0.007289  0.134865  0.037251 -0.017818 -0.138772 -0.092412
  1O   2px        0.237095  0.004855 -0.066325  0.174104 -0.273936  1.070726
  1O   2py        0.006487 -0.027485  0.171720 -0.057344 -0.738129 -0.288791
  1O   1dz2       0.029379  0.002066 -0.015616  0.013477 -0.025592 -0.026959
  1O   1dxz      -0.000664 -0.004593  0.000839 -0.002273 -0.001124  0.000230
  1O   1dyz      -0.013528  0.004809  0.011741 -0.003900  0.007675  0.008268
  1O   1dx2y2     0.017011  0.000882 -0.030743 -0.001261  0.008253  0.005176
  1O   1dxy      -0.010482  0.001142  0.004201 -0.016146  0.004479  0.010756
  2H   1s         0.067407  0.025095 -0.211036 -0.506901  0.522311  0.022352
  2H   2s        -0.709350 -1.105822  1.319533 -0.724426  0.397701  0.092851
  2H   1pz       -0.028538 -0.071432  0.060130  0.010507 -0.018666  0.064197
  2H   1px        0.000291 -0.040928  0.034665 -0.019816 -0.017972 -0.094359
  2H   1py        0.021199  0.014330 -0.032966 -0.016036 -0.025361  0.043587
  3H   1s         0.068877 -0.024291 -0.211314 -0.506131  0.521899  0.025254
  3H   2s        -0.711940  1.103184  1.323962 -0.724693  0.399261  0.092046
  3H   1pz        0.034455 -0.073942 -0.070783 -0.014564  0.008563 -0.035303
  3H   1px        0.002555  0.035391  0.029885 -0.020746 -0.017084 -0.096551
  3H   1py        0.008483  0.015224 -0.006406 -0.010916 -0.030884  0.065267
  4C   1s         0.013828 -0.000214  0.080459  0.128966  0.062959 -0.007916
  4C   2s        -0.008842  0.001641 -0.677432 -1.195432 -1.181918  0.102607
  4C   3s        -0.726879 -0.003968  1.726305  2.389025  7.280366  0.356596
  4C   1pz        0.027052  0.674470  0.096825 -0.014845 -0.012381  0.005871
  4C   1px       -0.746216  0.025917 -0.371350  0.196172  0.001574  0.124056
  4C   1py       -0.007977 -0.137823  0.404170 -0.038469 -0.061090  0.054608
  4C   2pz       -0.123671 -1.087741 -0.249499 -0.163575  0.408490  0.061531
  4C   2px        1.451236 -0.041859  0.744795 -0.554408  0.109193 -0.379638
  4C   2py       -0.335707  0.223371 -1.086044 -0.905100  2.032262  0.212990
  4C   1dz2       0.068744  0.020907  0.034760 -0.009525  0.012405  0.044551
  4C   1dxz      -0.005103 -0.075187 -0.005183 -0.002499  0.019063  0.021058
  4C   1dyz      -0.010864  0.043360 -0.011954 -0.000967  0.000119 -0.018334
  4C   1dx2y2    -0.056658  0.006504  0.003085  0.022075 -0.037657 -0.013733
  4C   1dxy      -0.056692  0.017150 -0.035989 -0.004922  0.082442  0.090668
  5H   1s        -0.491412 -0.000207  0.327594 -0.085447  0.134799  0.252778
  5H   2s         0.376853  0.000265 -0.326277 -0.139248  0.561028 -0.583664
  5H   1pz       -0.014643  0.000358  0.009958 -0.000988 -0.026352  0.001979
  5H   1px       -0.030756  0.000032  0.032817 -0.060930 -0.003172  0.029674
  5H   1py       -0.080150 -0.000023  0.057534 -0.016797 -0.137505  0.013704
  6H   1s         0.272395  0.301114  0.062488 -0.311907 -0.547569  0.101798
  6H   2s        -0.763376 -1.222214 -1.172376 -0.618880 -0.529546  0.044881
  6H   1pz       -0.054751 -0.067607 -0.055300  0.013943 -0.001612 -0.044368
  6H   1px        0.001728  0.066197  0.028096  0.002967 -0.066110 -0.079783
  6H   1py       -0.004986  0.019490  0.002146  0.010129  0.004753  0.047158
  7H   1s        -0.384592  0.000298 -0.069918 -0.248877 -0.700091  0.003842
  7H   2s         1.726610 -0.000138  0.093589 -1.186234 -0.606311 -0.233769
  7H   1pz        0.005030  0.049948 -0.001285  0.007989 -0.019269 -0.016108
  7H   1px        0.101497  0.001806  0.028818 -0.031407  0.034654 -0.006759
  7H   1py        0.042671 -0.010159 -0.001276  0.033302 -0.088064 -0.086880
  8H   1s         0.270602 -0.301608  0.061966 -0.312254 -0.547426  0.100943
  8H   2s        -0.759166  1.227366 -1.170032 -0.617841 -0.529312  0.041076
  8H   1pz        0.048117 -0.065183  0.049406 -0.009135  0.008056  0.064632
  8H   1px        0.005347 -0.071239  0.031814  0.002021 -0.065651 -0.077213
  8H   1py       -0.025796  0.007516 -0.019222  0.014760  0.002905  0.023580
                     36        37        38        39        40        41   
                   0.83170   0.91534   1.04121   1.10763   1.19893   1.26240
                   0.00000   0.00000   0.00000   0.00000   0.00000   0.00000
                  --------  --------  --------  --------  --------  --------
  0C   1s        -0.000041 -0.025854  0.000049  0.016535 -0.000049  0.021772
  0C   2s        -0.000331  0.545970 -0.000492 -0.154007  0.000594 -0.359961
  0C   3s         0.013283 -3.167914 -0.001056  0.794514 -0.001256  2.119858
  0C   1pz        0.010127 -0.027702 -0.095539 -0.025508 -0.112048 -0.007126
  0C   1px        0.000940  0.002752 -0.004134  0.111304 -0.003880 -0.067913
  0C   1py       -0.002526 -0.136934  0.019028 -0.103327  0.022849 -0.047537
  0C   2pz        0.632008  0.266056  0.919632  0.058805  0.695171 -0.085733
  0C   2px        0.025221  0.444152  0.035129  0.242847  0.025871  0.772583
  0C   2py       -0.128143  1.381056 -0.183894  0.301663 -0.140418 -0.272337
  0C   1dz2      -0.052130  0.069698  0.057312 -0.073700 -0.055225 -0.100094
  0C   1dxz      -0.028941  0.049636  0.291451 -0.023726 -0.123970 -0.057297
  0C   1dyz      -0.144764 -0.044781  0.208468  0.008549 -0.173355  0.029544
  0C   1dx2y2    -0.031622  0.042751  0.054400  0.107724 -0.041074  0.076655
  0C   1dxy      -0.000647  0.230788 -0.050003 -0.077157  0.018486 -0.231380
  1O   1s        -0.000603 -0.060246  0.000064  0.081416  0.000013  0.081885
  1O   2s        -0.002701 -0.401958  0.000349  0.471702  0.000124  0.608131
  1O   3s         0.000161  0.969363 -0.001004 -0.602419 -0.000086 -1.598610
  1O   1pz        0.754826 -0.046836  0.376775 -0.090164  0.010554  0.010830
  1O   1px        0.024837 -0.292160  0.014324 -0.183204  0.000237 -0.145439
  1O   1py       -0.148929 -0.295627 -0.073753 -0.491792 -0.002529  0.029622
  1O   2pz       -0.996270  0.115636 -0.667535  0.237692 -0.108869 -0.018556
  1O   2px       -0.031128  0.519263 -0.026045  0.580503 -0.003270  0.319628
  1O   2py        0.196883  0.690738  0.130844  1.317563  0.022574 -0.042437
  1O   1dz2      -0.005192 -0.011708 -0.005656  0.004597 -0.001351  0.003061
  1O   1dxz      -0.012542 -0.007778 -0.104694  0.013387  0.018614  0.035953
  1O   1dyz      -0.016524  0.000159 -0.035643 -0.015037  0.000079 -0.002144
  1O   1dx2y2    -0.003832  0.025989 -0.011128  0.052649  0.000739 -0.028823
  1O   1dxy       0.001846 -0.030121  0.019681  0.076445 -0.003945  0.171713
  2H   1s         0.179863  0.202453  0.181616 -0.097725  0.116257 -0.126910
  2H   2s         0.029323  0.235724  0.309473 -0.202074  0.238283 -0.151255
  2H   1pz        0.039634 -0.134660  0.063810  0.057623  0.220576  0.135092
  2H   1px        0.109934  0.109831 -0.257367 -0.064614  0.108809  0.108652
  2H   1py        0.093799 -0.057743 -0.174446  0.016337  0.332386  0.226821
  3H   1s        -0.181993  0.201718 -0.181783 -0.100044 -0.116201 -0.126233
  3H   2s        -0.031597  0.233735 -0.310410 -0.207828 -0.238276 -0.150752
  3H   1pz        0.006899  0.093026  0.108591 -0.041307  0.081030 -0.044916
  3H   1px       -0.109837  0.117301  0.265287 -0.066049 -0.097728  0.098992
  3H   1py       -0.101811 -0.104949  0.139540  0.037505 -0.394218  0.262133
  4C   1s        -0.000156  0.037858 -0.000022  0.041443 -0.000003  0.014890
  4C   2s         0.003214 -0.638323  0.000573 -0.534840 -0.000193 -0.076393
  4C   3s        -0.012460  3.877304  0.001268  1.363891  0.001677 -0.665242
  4C   1pz        0.068172 -0.012173 -0.020876 -0.017619  0.106108 -0.012795
  4C   1px        0.003468 -0.012202 -0.000202 -0.172273  0.003877  0.010129
  4C   1py       -0.013411 -0.062121  0.004301 -0.117502 -0.021501 -0.061690
  4C   2pz       -0.489577  0.230463 -0.301182 -0.001210 -0.641314 -0.055446
  4C   2px       -0.022544  0.296588 -0.013999  0.679287 -0.023256 -0.514283
  4C   2py        0.096642  1.191992  0.062528  0.128291  0.130840 -0.369060
  4C   1dz2       0.044306 -0.113013 -0.064451  0.082400 -0.055555 -0.061695
  4C   1dxz       0.120212 -0.057365 -0.155709  0.038208 -0.156155 -0.039065
  4C   1dyz       0.140660  0.061771 -0.201883 -0.042286 -0.180036  0.027290
  4C   1dx2y2     0.034091 -0.042576 -0.048524  0.022391 -0.043677  0.011396
  4C   1dxy      -0.017602 -0.254073  0.022178  0.167176  0.024685 -0.169497
  5H   1s         0.001054 -0.349028  0.000459 -0.555396 -0.000121  0.225749
  5H   2s        -0.002988 -0.547793  0.001037 -0.357413 -0.000161 -0.101953
  5H   1pz       -0.078647  0.031135 -0.208523  0.013263  0.039719 -0.044122
  5H   1px       -0.003054 -0.027726 -0.006711  0.227475  0.000701  0.541846
  5H   1py        0.015589  0.150629  0.041178  0.103023 -0.007849 -0.120550
  6H   1s        -0.047691 -0.285613 -0.037640 -0.270360 -0.106497  0.035261
  6H   2s        -0.243764 -0.315102 -0.049784 -0.291373 -0.223712  0.033872
  6H   1pz       -0.014574  0.105856  0.028072 -0.035309 -0.058614  0.049390
  6H   1px       -0.101107  0.118122  0.153313  0.041615  0.160222 -0.009082
  6H   1py       -0.092162 -0.162646  0.107744  0.211499  0.399850 -0.105829
  7H   1s         0.000815 -0.209546 -0.000469 -0.036560  0.000025 -0.116788
  7H   2s        -0.000745 -0.217182 -0.001151  0.169585  0.000124 -0.098711
  7H   1pz       -0.169290  0.036951  0.191691 -0.059202  0.025875  0.082032
  7H   1px       -0.006355 -0.032500  0.006684  0.098400  0.001048 -0.071922
  7H   1py        0.033460  0.179631 -0.037398 -0.276355 -0.005654  0.391082
  8H   1s         0.052010 -0.285635  0.038821 -0.270077  0.106120  0.035203
  8H   2s         0.246596 -0.313840  0.050775 -0.289803  0.223322  0.033742
  8H   1pz        0.017025 -0.168652 -0.006845  0.112530 -0.198076 -0.086642
  8H   1px        0.099603  0.108869 -0.151984  0.046125 -0.169717 -0.013745
  8H   1py        0.092859 -0.105837 -0.113814  0.181196 -0.347354 -0.078813
                     42        43        44        45        46        47   
                   1.33300   1.35289   1.36446   1.54586   1.54902   1.56227
                   0.00000   0.00000   0.00000   0.00000   0.00000   0.00000
                  --------  --------  --------  --------  --------  --------
  0C   1s         0.000515 -0.016297  0.000044 -0.008644 -0.067480  0.026285
  0C   2s         0.002008 -0.191436  0.001644  0.045365  0.358021 -0.200179
  0C   3s        -0.081256  4.274918 -0.026898  0.218752  1.629503  0.657660
  0C   1pz       -0.021382  0.018368  0.008475  0.167851 -0.038353  0.064957
  0C   1px       -0.009811  0.383819 -0.001667  0.027788  0.159661  0.065767
  0C   1py        0.001955  0.161643 -0.002996 -0.040223 -0.047241  0.332882
  0C   2pz        0.463512 -0.009149 -0.149529 -1.700536  0.088566 -0.137549
  0C   2px        0.006339  0.518272 -0.008429  0.127668  1.487304  0.805787
  0C   2py       -0.098667  0.020870  0.031178  0.289622 -0.410156 -0.537356
  0C   1dz2       0.029034 -0.006025 -0.007979 -0.040174 -0.201725 -0.382987
  0C   1dxz      -0.016921  0.056314 -0.005218 -0.014488 -0.069040 -0.008111
  0C   1dyz       0.076842 -0.041786 -0.022485 -0.036116  0.010431  0.173257
  0C   1dx2y2     0.011776  0.156163 -0.005738  0.037865  0.365080 -0.165824
  0C   1dxy      -0.000499  0.306532 -0.001732 -0.027978 -0.210365  0.056702
  1O   1s        -0.003746  0.172226 -0.000965  0.005049  0.035405  0.029723
  1O   2s        -0.030472  1.409089 -0.007901  0.062710  0.460540  0.286856
  1O   3s         0.072864 -3.439299  0.019530 -0.236378 -1.786562 -0.976756
  1O   1pz        0.154216  0.043804 -0.069069 -0.117289  0.015067 -0.006985
  1O   1px        0.012186 -0.289010 -0.000947 -0.000690  0.038416  0.007384
  1O   1py       -0.033389  0.151424  0.012807  0.023563  0.001012 -0.033926
  1O   2pz       -0.612787 -0.217522  0.218764  0.537540 -0.068424  0.011033
  1O   2px       -0.052509  1.345524  0.000542  0.137483  0.885238  0.311671
  1O   2py        0.138224 -0.783159 -0.038860 -0.084973  0.187200  0.114155
  1O   1dz2       0.075832 -0.137097 -0.021572 -0.023477 -0.059071 -0.044388
  1O   1dxz      -0.009580 -0.018949  0.007574  0.118485 -0.018236 -0.010289
  1O   1dyz       0.200561  0.046955 -0.061179 -0.019555  0.012494  0.015044
  1O   1dx2y2     0.040124  0.039686 -0.012505  0.007180  0.056576  0.011618
  1O   1dxy       0.010917 -0.039521 -0.003672 -0.023135  0.016016 -0.033398
  2H   1s         0.110469 -0.387097 -0.025703 -0.405377  0.097669  0.178107
  2H   2s         0.186020 -0.507211 -0.055797 -0.503101  0.155737 -0.073001
  2H   1pz        0.063368 -0.138196 -0.035698  0.548538  0.042929  0.015655
  2H   1px       -0.148973  0.085254  0.057904 -0.443361 -0.280648 -0.192427
  2H   1py        0.002351 -0.135873 -0.002373  0.132537 -0.089046  0.174602
  3H   1s        -0.095528 -0.389819  0.030623  0.416393 -0.008562  0.177551
  3H   2s        -0.164138 -0.511467  0.061630  0.525126  0.022176 -0.074411
  3H   1pz        0.044324  0.069258 -0.028743  0.393102 -0.157653  0.066566
  3H   1px        0.149788  0.097474 -0.061558  0.393623 -0.394917 -0.191428
  3H   1py       -0.017849 -0.177808  0.017631 -0.333224  0.017036  0.165995
  4C   1s         0.000170 -0.020934  0.000191 -0.000158 -0.002741  0.022100
  4C   2s        -0.003499  0.332736 -0.002821  0.005259  0.051583 -0.151471
  4C   3s         0.029115 -2.071251  0.015562 -0.110445 -0.825620 -0.184276
  4C   1pz        0.013873  0.009139 -0.006382  0.012387  0.016955 -0.050902
  4C   1px        0.001509 -0.021272 -0.000227  0.000211  0.004203  0.021851
  4C   1py       -0.002996  0.040137  0.000879  0.008339  0.090312 -0.244640
  4C   2pz       -0.225066 -0.137192  0.072686  0.694136 -0.196816  0.135279
  4C   2px       -0.005230 -0.251339  0.004396 -0.082695 -0.862339 -0.685288
  4C   2py        0.057950 -0.705537 -0.009831 -0.232393 -0.654101  0.535720
  4C   1dz2       0.004867  0.030352 -0.001277  0.012826 -0.042627 -0.345521
  4C   1dxz      -0.053803 -0.023831  0.015166  0.161193 -0.070950 -0.009186
  4C   1dyz       0.005331  0.006827 -0.000368  0.075730 -0.047000  0.179640
  4C   1dx2y2    -0.000110 -0.058977  0.001009  0.057783  0.276339 -0.252907
  4C   1dxy       0.013693 -0.133557 -0.002251 -0.053549 -0.174537  0.023770
  5H   1s        -0.018247  0.878197 -0.004917  0.015091  0.109286  0.062170
  5H   2s         0.000572 -0.018988  0.000147 -0.023388 -0.182269  0.042042
  5H   1pz        0.857828 -0.002133 -0.249134 -0.139345  0.048706  0.001079
  5H   1px        0.033827 -0.076050 -0.008851 -0.066249 -0.465713 -0.093717
  5H   1py       -0.167351 -0.117588  0.049970  0.036091  0.056978 -0.014302
  6H   1s        -0.036328  0.105235  0.007250  0.168994  0.062757  0.232971
  6H   2s        -0.098757  0.125059  0.032362  0.130063  0.011243  0.053294
  6H   1pz        0.121745  0.047408  0.229268 -0.006156  0.100689 -0.047112
  6H   1px        0.149792  0.095353  0.493873 -0.054379  0.193058  0.230052
  6H   1py       -0.078597  0.066296 -0.126011 -0.129197  0.105844 -0.214601
  7H   1s        -0.001654  0.140439 -0.001228 -0.038949 -0.308497 -0.178631
  7H   2s        -0.002409  0.127545 -0.000887 -0.004656 -0.039571 -0.131617
  7H   1pz       -0.100393 -0.042084 -0.573136 -0.120465  0.074285 -0.060220
  7H   1px       -0.003983 -0.025473 -0.021024  0.008202  0.107839  0.070383
  7H   1py        0.025291 -0.182591  0.117534  0.065683  0.298997 -0.280450
  8H   1s         0.034569  0.106282 -0.009128 -0.147888  0.104491  0.232403
  8H   2s         0.096630  0.127602 -0.034569 -0.123963  0.043785  0.052674
  8H   1pz        0.153351 -0.014853  0.295240  0.023251 -0.072669 -0.058459
  8H   1px       -0.145313  0.081256 -0.474770  0.100402  0.166810  0.229246
  8H   1py        0.016965  0.082344  0.019136  0.152866  0.103530 -0.213784
                     48        49        50        51        52        53   
                   1.59188   1.62305   1.64383   1.67814   1.70922   1.73475
                   0.00000   0.00000   0.00000   0.00000   0.00000   0.00000
                  --------  --------  --------  --------  --------  --------
  0C   1s         0.000084  0.018221  0.000140 -0.039063  0.000153 -0.051679
  0C   2s        -0.000522 -0.063734 -0.000675  0.218174 -0.000566  0.222076
  0C   3s        -0.000707 -1.052220 -0.002060 -0.831038 -0.004603  1.852202
  0C   1pz        0.071926 -0.032677  0.200073 -0.019083  0.358344 -0.008946
  0C   1px        0.002854 -0.072170  0.007173 -0.184356  0.013387  0.005680
  0C   1py       -0.014154 -0.172646 -0.041448 -0.133545 -0.072435 -0.045888
  0C   2pz        0.351292  0.125243 -0.330677 -0.012434 -0.157420 -0.320692
  0C   2px        0.012945 -0.357615 -0.017184 -0.086806 -0.001811 -0.820574
  0C   2py       -0.070582  0.566059  0.066782 -0.052077  0.037124 -1.756350
  0C   1dz2      -0.046361  0.175854 -0.145710 -0.090348 -0.022404 -0.003936
  0C   1dxz      -0.134398 -0.006386  0.197195  0.061290  0.486357  0.023420
  0C   1dyz      -0.150257 -0.060790 -0.364014 -0.029335  0.029624  0.066943
  0C   1dx2y2    -0.036971  0.006905 -0.070901  0.222533  0.024351 -0.317051
  0C   1dxy       0.021571 -0.085767 -0.056013  0.365257 -0.098580  0.053184
  1O   1s         0.000078 -0.042752 -0.000120 -0.093360 -0.000268  0.042530
  1O   2s         0.000593 -0.370680 -0.001739 -0.566976 -0.001356  0.188789
  1O   3s        -0.001165  0.927386  0.006244  0.871524 -0.000581  0.136962
  1O   1pz       -0.013362  0.029668 -0.049791  0.025312 -0.079563  0.005638
  1O   1px       -0.000522 -0.011350 -0.002812  0.342605 -0.002849 -0.133498
  1O   1py        0.003069  0.145108  0.009656  0.192515  0.014748  0.003709
  1O   2pz        0.048301 -0.086320  0.072383 -0.057623 -0.010286  0.014286
  1O   2px        0.001491 -0.430851  0.001231 -0.728844  0.000454  0.122046
  1O   2py       -0.011085 -0.509142 -0.014831 -0.427047  0.003986  0.101285
  1O   1dz2      -0.009978  0.051464 -0.002898  0.022603  0.012292 -0.011177
  1O   1dxz       0.033241  0.011585 -0.028946  0.004398 -0.216880 -0.031150
  1O   1dyz      -0.021536 -0.009793 -0.013524 -0.012359 -0.005705  0.014631
  1O   1dx2y2    -0.003343 -0.047344 -0.004288  0.016933 -0.008886 -0.021104
  1O   1dxy      -0.007618  0.031807  0.005435  0.019866  0.044193 -0.151170
  2H   1s         0.078328 -0.033622 -0.247484  0.154357 -0.142131 -0.051421
  2H   2s         0.017186  0.012743  0.177079  0.045639  0.154624 -0.001503
  2H   1pz        0.102063  0.000026  0.102471  0.020732  0.251740  0.045241
  2H   1px        0.041581  0.228950  0.055499 -0.103762  0.442447  0.285431
  2H   1py        0.027297 -0.055092 -0.425712  0.267782  0.019423  0.422225
  3H   1s        -0.078168 -0.033300  0.246236  0.157547  0.142474 -0.053807
  3H   2s        -0.018130  0.016183 -0.176660  0.047017 -0.154068 -0.004413
  3H   1pz        0.086330 -0.038272  0.263572  0.095561  0.254638  0.101895
  3H   1px       -0.034227  0.228876 -0.037570 -0.101320 -0.426579  0.283665
  3H   1py       -0.065332 -0.051702  0.351319  0.252547 -0.126116  0.410775
  4C   1s        -0.000005 -0.018812 -0.000017  0.009949 -0.000160  0.057172
  4C   2s        -0.000050  0.135471  0.000274 -0.007217  0.000407 -0.194799
  4C   3s         0.001253  0.465784 -0.001148  0.058164  0.006313 -2.043418
  4C   1pz        0.286929  0.001238  0.040968  0.006985 -0.095237 -0.057458
  4C   1px        0.010971  0.391007  0.003058 -0.036876 -0.003679  0.026960
  4C   1py       -0.058592  0.079071 -0.008315  0.026767  0.020074 -0.275364
  4C   2pz       -1.153492  0.096781  0.550449 -0.009804 -0.240371 -0.312064
  4C   2px       -0.044083 -0.851371  0.020114 -0.505192 -0.008154 -0.041744
[...]
Table01         0.3  0.02         0.3  0.02         6.8  0.45        14.9 
Table01a        0.3  0.02,        0.3, 0.02,        6.8  0.45        14.9 
Table01b        0.3   1.7,        0.3,  2.2,        6.8  45.4        14.9 

Writing the Hessian file to the disk             ... done


Maximum memory used throughout the entire calculation: 132.5 MB

-----------------------
VIBRATIONAL FREQUENCIES
-----------------------

Scaling factor for frequencies =  1.000000000  (already applied!)

   0:         0.00 cm**-1
   1:         0.00 cm**-1
   2:         0.00 cm**-1
   3:         0.00 cm**-1
   4:         0.00 cm**-1
   5:         0.00 cm**-1
   6:       252.39 cm**-1
   7:       290.53 cm**-1
   8:       410.94 cm**-1
   9:       800.88 cm**-1
  10:       888.45 cm**-1
  11:      1011.77 cm**-1
  12:      1094.89 cm**-1
  13:      1140.07 cm**-1
  14:      1235.54 cm**-1
  15:      1249.88 cm**-1
  16:      1339.12 cm**-1
  17:      1411.06 cm**-1
  18:      1412.59 cm**-1
  19:      1434.56 cm**-1
  20:      1467.48 cm**-1
  21:      2872.43 cm**-1
  22:      2898.56 cm**-1
  23:      2970.79 cm**-1
  24:      3060.35 cm**-1
  25:      3063.83 cm**-1
  26:      3704.58 cm**-1


------------
NORMAL MODES
------------

These modes are the Cartesian displacements weighted by the diagonal matrix
M(i,i)=1/sqrt(m[i]) where m[i] is the mass of the displaced atom
Thus, these vectors are normalized but *not* orthogonal

                  0          1          2          3          4          5    
      0       0.000000   0.000000   0.000000   0.000000   0.000000   0.000000
      1       0.000000   0.000000   0.000000   0.000000   0.000000   0.000000
      2       0.000000   0.000000   0.000000   0.000000   0.000000   0.000000
      3       0.000000   0.000000   0.000000   0.000000   0.000000   0.000000
      4       0.000000   0.000000   0.000000   0.000000   0.000000   0.000000
      5       0.000000   0.000000   0.000000   0.000000   0.000000   0.000000
      6       0.000000   0.000000   0.000000   0.000000   0.000000   0.000000
      7       0.000000   0.000000   0.000000   0.000000   0.000000   0.000000
      8       0.000000   0.000000   0.000000   0.000000   0.000000   0.000000
      9       0.000000   0.000000   0.000000   0.000000   0.000000   0.000000
     10       0.000000   0.000000   0.000000   0.000000   0.000000   0.000000
     11       0.000000   0.000000   0.000000   0.000000   0.000000   0.000000
     12       0.000000   0.000000   0.000000   0.000000   0.000000   0.000000
     13       0.000000   0.000000   0.000000   0.000000   0.000000   0.000000
     14       0.000000   0.000000   0.000000   0.000000   0.000000   0.000000
     15       0.000000   0.000000   0.000000   0.000000   0.000000   0.000000
     16       0.000000   0.000000   0.000000   0.000000   0.000000   0.000000
     17       0.000000   0.000000   0.000000   0.000000   0.000000   0.000000
     18       0.000000   0.000000   0.000000   0.000000   0.000000   0.000000
     19       0.000000   0.000000   0.000000   0.000000   0.000000   0.000000
     20       0.000000   0.000000   0.000000   0.000000   0.000000   0.000000
     21       0.000000   0.000000   0.000000   0.000000   0.000000   0.000000
     22       0.000000   0.000000   0.000000   0.000000   0.000000   0.000000
     23       0.000000   0.000000   0.000000   0.000000   0.000000   0.000000
     24       0.000000   0.000000   0.000000   0.000000   0.000000   0.000000
     25       0.000000   0.000000   0.000000   0.000000   0.000000   0.000000
     26       0.000000   0.000000   0.000000   0.000000   0.000000   0.000000
                  6          7          8          9         10         11    
      0      -0.001688   0.002426   0.131589   0.002250  -0.103067  -0.025166
      1       0.009099  -0.012777  -0.127217  -0.011869   0.086281  -0.203977
      2      -0.045092   0.062512  -0.030887   0.058487   0.021418  -0.040335
      3       0.003324   0.000936   0.090564  -0.000785   0.152128   0.078447
      4      -0.017556  -0.004339   0.204573   0.003926   0.051170  -0.007602
      5       0.087247   0.022724   0.038016  -0.019534   0.004612  -0.004487
      6       0.074290  -0.017049   0.080916   0.087062   0.043346   0.045750
      7      -0.005011   0.013020  -0.161845  -0.378083   0.208543  -0.154866
      8      -0.104802   0.102148  -0.025083  -0.302792   0.038072  -0.036353
      9      -0.081549   0.024332   0.080096  -0.103200   0.043598   0.045027
     10       0.044247  -0.051675  -0.157487   0.464650   0.208209  -0.155836
     11      -0.088963   0.087401  -0.046100  -0.124535   0.042926  -0.030535
     12      -0.000736  -0.001016  -0.158601   0.001831  -0.148828  -0.072191
     13       0.003579   0.004646  -0.113383  -0.009509  -0.140768   0.178216
     14      -0.017881  -0.023458  -0.016961   0.047091  -0.022905   0.038801
     15      -0.017599  -0.031777  -0.241236   0.000890   0.096506  -0.619605
     16       0.095109   0.169985   0.248705  -0.005933   0.064187   0.091876
     17      -0.473171  -0.844169   0.061328   0.029688   0.009750   0.041666
     18      -0.431254   0.241540  -0.389690  -0.011487   0.203662   0.215119
     19       0.048150   0.039850  -0.314220   0.477713   0.078334   0.399776
     20      -0.214655   0.071244  -0.061916  -0.096844   0.063121   0.103220
     21       0.018579  -0.011889  -0.257122  -0.006708   0.000076   0.015766
     22      -0.100280   0.063003   0.323801   0.036328  -0.821445  -0.165377
     23       0.494274  -0.309967   0.075634  -0.177748  -0.166848  -0.034071
     24       0.413669  -0.236817  -0.388537  -0.002732   0.199736   0.212897
     25       0.045375  -0.068440  -0.319034  -0.402255   0.099250   0.412045
     26      -0.247095   0.067314  -0.037127  -0.275758  -0.042493   0.045559
                 12         13         14         15         16         17    
      0       0.296754  -0.006344   0.063647  -0.000418  -0.026299  -0.001347
      1       0.040675   0.035654  -0.049216   0.003491  -0.031735   0.004294
      2      -0.002665  -0.176987  -0.012016  -0.018144  -0.005413  -0.025909
      3      -0.201525   0.001792  -0.038826  -0.001298  -0.007777  -0.000101
      4      -0.015794  -0.010812   0.046947   0.006419   0.013928  -0.000137
      5       0.004336   0.053728   0.010980  -0.030659   0.003098   0.001934
      6       0.392990  -0.497791  -0.161199   0.468982   0.124110  -0.009112
      7       0.222229   0.125079  -0.320177   0.455584   0.177956   0.052746
      8       0.050623   0.221416  -0.073044   0.048731   0.058261   0.015232
      9       0.389655   0.511293  -0.157103  -0.472525   0.122038   0.012981
     10       0.230632  -0.194484  -0.321032  -0.448050   0.188512  -0.049258
     11       0.011162   0.118456  -0.045174  -0.099186   0.006774  -0.007502
     12      -0.099955   0.004047  -0.073491   0.002805  -0.013950  -0.001449
     13      -0.034460  -0.022883   0.032281  -0.016643  -0.135519   0.009206
     14      -0.003415   0.113546   0.008798   0.082622  -0.026973  -0.043457
     15      -0.349928   0.000550   0.773303   0.003012   0.107290   0.002864
     16      -0.009928   0.001367  -0.074912   0.000801  -0.003968  -0.002446
     17       0.011036  -0.007805  -0.043868  -0.005504  -0.004775   0.011191
     18       0.213195  -0.047420   0.158490  -0.036053   0.196459   0.417424
     19       0.071926   0.362243   0.132745   0.234959   0.451923   0.257235
     20       0.092031  -0.025737   0.078568  -0.005700  -0.085593   0.082407
     21       0.000762  -0.008892  -0.033803  -0.004687  -0.155731   0.026488
     22      -0.444535   0.046970  -0.117715   0.023924   0.571636  -0.140762
     23      -0.089849  -0.234903  -0.021718  -0.120387   0.121769   0.688894
     24       0.206934   0.041178   0.153860   0.033434   0.208861  -0.415728
     25       0.106317  -0.321742   0.157732  -0.212397   0.385824  -0.276198
     26      -0.071374  -0.168256  -0.030688  -0.099631   0.240295   0.005616
                 18         19         20         21         22         23    
      0       0.061125   0.018664  -0.080467  -0.044698  -0.003707  -0.000004
      1       0.163076   0.040550   0.025827   0.047047   0.019055  -0.002704
      2       0.030471   0.007481   0.008294   0.011645  -0.092807  -0.000548
      3       0.032988  -0.005773  -0.011043  -0.002892   0.000007  -0.000011
      4      -0.044372  -0.003226   0.008446  -0.001297  -0.000090  -0.000094
      5      -0.010150  -0.000429   0.002114  -0.000158   0.000399  -0.000019
      6      -0.323506   0.070455   0.468240   0.310528   0.319353  -0.003506
      7      -0.392513  -0.177497  -0.143332  -0.379874  -0.402055   0.007889
      8      -0.165779  -0.188616  -0.457551   0.502079   0.482909  -0.006926
      9      -0.315663   0.081292   0.497719   0.270108  -0.275237  -0.002881
     10      -0.431731  -0.236086  -0.303414  -0.151339   0.176263   0.004520
     11       0.022794   0.098982   0.330420  -0.636673   0.617437   0.009684
     12      -0.043251   0.036865  -0.006830   0.003725   0.000266   0.006089
     13      -0.065735  -0.028053   0.009637  -0.000756  -0.001306   0.049023
     14      -0.012035  -0.007112   0.002232  -0.000315   0.006412   0.009694
     15      -0.447707  -0.030552   0.054456  -0.007548   0.000181   0.001660
     16       0.032502   0.000610  -0.001793   0.000682  -0.001150   0.001114
     17       0.023243   0.001254  -0.002384   0.000425   0.005946   0.000167
     18       0.232729  -0.397304   0.115782  -0.000048   0.023063   0.224856
     19       0.042338   0.371800  -0.131862  -0.000350  -0.012125  -0.132135
     20       0.071559  -0.292591   0.091868   0.004646  -0.048296  -0.521146
     21      -0.103590   0.076430  -0.027795  -0.038707  -0.000134  -0.552623
     22       0.227873  -0.278619   0.107650  -0.001380  -0.000664  -0.110348
     23       0.055645  -0.058748   0.022729   0.001163   0.003176  -0.001537
     24       0.221162  -0.370368   0.107065  -0.000199  -0.026334   0.260166
     25       0.065910   0.222085  -0.083882   0.001271   0.029660  -0.321478
     26      -0.066049   0.442128  -0.144070  -0.004128  -0.038036   0.411085
                  24         25         26    
      0       0.000332   0.003162   0.001964
      1      -0.001650  -0.002438  -0.001457
      2       0.007987  -0.000684  -0.000365
      3      -0.000013  -0.000473  -0.011394
      4       0.000048  -0.000023  -0.060346
      5      -0.000234   0.000015  -0.011705
      6      -0.021921  -0.011709   0.003269
      7       0.031317   0.014577   0.001720
      8      -0.037946  -0.016367  -0.000164
      9       0.018432  -0.010580   0.003311
     10      -0.013592   0.007095   0.001534
     11      -0.048140   0.022346   0.000539
     12       0.004294   0.092081  -0.000412
     13      -0.018578  -0.011424   0.000286
     14       0.091030  -0.006678   0.000074
     15      -0.000037  -0.000809   0.154501
     16       0.000160   0.000257   0.967752
     17      -0.000820   0.000092   0.188781
     18       0.274367  -0.141282   0.000120
     19      -0.172835   0.095425   0.000797
     20      -0.618472   0.365890   0.000985
     21      -0.007049  -0.802929   0.001092
     22      -0.004709  -0.172662  -0.001163
     23       0.015084  -0.004870  -0.000283
     24      -0.318717  -0.160057   0.000061
     25       0.399938   0.220847   0.001129
     26      -0.485853  -0.279615  -0.000604


-----------
IR SPECTRUM
-----------

 Mode    freq (cm**-1)   T**2         TX         TY         TZ
-------------------------------------------------------------------
   6:       252.39   37.331272  ( -0.223883   1.205224  -5.985698)
   7:       290.53   78.550496  ( -0.329830   1.747329  -8.682658)
   8:       410.94   10.137420  ( -2.822787  -1.461894  -0.179337)
   9:       800.88    0.096476  ( -0.013401   0.060917  -0.304279)
  10:       888.45   11.513562  ( -3.240784  -1.002547  -0.076029)
  11:      1011.77   45.159227  ( -6.355268  -2.174845  -0.199606)
  12:      1094.89   41.044225  (  6.228543   1.498238   0.068980)
  13:      1140.07    4.053445  ( -0.059277   0.400792  -1.972130)
  14:      1235.54   77.876868  (  8.691033   1.530566  -0.013660)
  15:      1249.88    0.106448  (  0.028128   0.071083  -0.317181)
  16:      1339.12    0.623661  (  0.374273   0.683641   0.127342)
  17:      1411.06    5.546964  (  0.080414  -0.492032   2.301826)
  18:      1412.59   14.147285  (  1.101892   3.530242   0.685936)
  19:      1434.56    1.954870  ( -1.314894   0.453101   0.143609)
  20:      1467.48    4.095910  ( -1.735156  -1.031782  -0.143419)
  21:      2872.43   83.361614  ( -7.327966   5.266479   1.388062)
  22:      2898.56   80.555949  ( -0.360008   1.805599  -8.784427)
  23:      2970.79   15.412945  (  0.682416   3.794220   0.742393)
  24:      3060.35   23.842179  (  0.223179  -0.978407   4.778607)
  25:      3063.83   21.108925  (  4.454474  -1.042066  -0.425065)
  26:      3704.58   15.821759  (  1.519464   3.614901   0.667440)

The first frequency considered to be a vibration is 6
The total number of vibrations considered is 21


--------------------------
THERMOCHEMISTRY AT 298.15K
--------------------------

Temperature         ... 298.15 K
Pressure            ... 1.00 atm
Total Mass          ... 46.07 AMU

Throughout the following assumptions are being made:
  (1) The electronic state is orbitally nondegenerate
  (2) There are no thermally accessible electronically excited states
  (3) Hindered rotations indicated by low frequency modes are not
      treated as such but are treated as vibrations and this may
      cause some error
  (4) All equations used are the standard statistical mechanics
      equations for an ideal gas
  (5) All vibrations are strictly harmonic

freq.     252.39  E(vib)   ...       0.30 
freq.     290.53  E(vib)   ...       0.27 
freq.     410.94  E(vib)   ...       0.19 
freq.     800.88  E(vib)   ...       0.05 
freq.     888.45  E(vib)   ...       0.04 
freq.    1011.77  E(vib)   ...       0.02 
freq.    1094.89  E(vib)   ...       0.02 
freq.    1140.07  E(vib)   ...       0.01 
freq.    1235.54  E(vib)   ...       0.01 
freq.    1249.88  E(vib)   ...       0.01 
freq.    1339.12  E(vib)   ...       0.01 
freq.    1411.06  E(vib)   ...       0.00 
freq.    1412.59  E(vib)   ...       0.00 
freq.    1434.56  E(vib)   ...       0.00 
freq.    1467.48  E(vib)   ...       0.00 
freq.    2872.43  E(vib)   ...       0.00 
freq.    2898.56  E(vib)   ...       0.00 
freq.    2970.79  E(vib)   ...       0.00 
freq.    3060.35  E(vib)   ...       0.00 
freq.    3063.83  E(vib)   ...       0.00 
freq.    3704.58  E(vib)   ...       0.00 

------------
INNER ENERGY
------------

The inner energy is: U= E(el) + E(ZPE) + E(vib) + E(rot) + E(trans)
    E(el)   - is the total energy from the electronic structure calculation
              = E(kin-el) + E(nuc-el) + E(el-el) + E(nuc-nuc)
    E(ZPE)  - the the zero temperature vibrational energy from the frequency calculation
    E(vib)  - the the finite temperature correction to E(ZPE) due to population
              of excited vibrational states
    E(rot)  - is the rotational thermal energy
    E(trans)- is the translational thermal energy

Summary of contributions to the inner energy U:
Electronic energy                ...   -154.87970674 Eh
Zero point energy                ...      0.07748207 Eh      48.62 kcal/mol
Thermal vibrational correction   ...      0.00149474 Eh       0.94 kcal/mol
Thermal rotational correction    ...      0.00141627 Eh       0.89 kcal/mol
Thermal translational correction ...      0.00141627 Eh       0.89 kcal/mol
-----------------------------------------------------------------------
Total thermal energy                   -154.79789739 Eh


Summary of corrections to the electronic energy:
(perhaps to be used in another calculation)
Total thermal correction                  0.00432728 Eh       2.72 kcal/mol
Non-thermal (ZPE) correction              0.07748207 Eh      48.62 kcal/mol
-----------------------------------------------------------------------
Total correction                          0.08180935 Eh      51.34 kcal/mol


--------
ENTHALPY
--------

The enthalpy is H = U + kB*T
                kB is Boltzmann's constant
Total free energy                 ...   -154.79789739 Eh 
Thermal Enthalpy correction       ...      0.00094421 Eh       0.59 kcal/mol
-----------------------------------------------------------------------
Total Enthalpy                    ...   -154.79695318 Eh


Note: Only C1 symmetry has been detected, increase convergence thresholds 
      if your molecule has a higher symmetry. Symmetry factor of 1.0 is   
      used for the rotational entropy correction. 
 

Note: Rotational entropy computed according to Herzberg 
Infrared and Raman Spectra, Chapter V,1, Van Nostrand Reinhold, 1945 
Point Group:  C1, Symmetry Number:   1  
Rotational constants in cm-1:     1.152369     0.308639     0.268647 

Vibrational entropy computed according to the QRRHO of S. Grimme
Chem.Eur.J. 2012 18 9955


-------
ENTROPY
-------

The entropy contributions are T*S = T*(S(el)+S(vib)+S(rot)+S(trans))
     S(el)   - electronic entropy
     S(vib)  - vibrational entropy
     S(rot)  - rotational entropy
     S(trans)- translational entropy
The entropies will be listed as mutliplied by the temperature to get
units of energy

Electronic entropy                ...      0.00000000 Eh      0.00 kcal/mol
Vibrational entropy               ...      0.00229706 Eh      1.44 kcal/mol
Rotational entropy                ...      0.01061933 Eh      6.66 kcal/mol
Translational entropy             ...      0.01777359 Eh     11.15 kcal/mol
-----------------------------------------------------------------------
Final entropy term                ...      0.03068999 Eh     19.26 kcal/mol

In case the symmetry of your molecule has not been determined correctly
or in case you have a reason to use a different symmetry number we print 
out the resulting rotational entropy values for sn=1,12 :
 --------------------------------------------------------
|  sn= 1 | S(rot)=       0.01061933 Eh      6.66 kcal/mol|
|  sn= 2 | S(rot)=       0.00996488 Eh      6.25 kcal/mol|
|  sn= 3 | S(rot)=       0.00958205 Eh      6.01 kcal/mol|
|  sn= 4 | S(rot)=       0.00931042 Eh      5.84 kcal/mol|
|  sn= 5 | S(rot)=       0.00909973 Eh      5.71 kcal/mol|
|  sn= 6 | S(rot)=       0.00892759 Eh      5.60 kcal/mol|
|  sn= 7 | S(rot)=       0.00878204 Eh      5.51 kcal/mol|
|  sn= 8 | S(rot)=       0.00865597 Eh      5.43 kcal/mol|
|  sn= 9 | S(rot)=       0.00854476 Eh      5.36 kcal/mol|
|  sn=10 | S(rot)=       0.00844528 Eh      5.30 kcal/mol|
|  sn=11 | S(rot)=       0.00835529 Eh      5.24 kcal/mol|
|  sn=12 | S(rot)=       0.00827313 Eh      5.19 kcal/mol|
 --------------------------------------------------------


-------------------
GIBBS FREE ENERGY
-------------------

The Gibbs free energy is G = H - T*S

Total enthalpy                    ...   -154.79695318 Eh 
Total entropy correction          ...     -0.03068999 Eh    -19.26 kcal/mol
-----------------------------------------------------------------------
Final Gibbs free energy         ...   -154.82764317 Eh

For completeness - the Gibbs free energy minus the electronic energy
G-E(el)                           ...      0.05206357 Eh     32.67 kcal/mol


Timings for individual modules:

Sum of individual times         ...       39.907 sec (=   0.665 min)
GTO integral calculation        ...        2.689 sec (=   0.045 min)   6.7 %
SCF iterations                  ...       15.916 sec (=   0.265 min)  39.9 %
SCF Gradient evaluation         ...        5.928 sec (=   0.099 min)  14.9 %
Geometry relaxation             ...        0.190 sec (=   0.003 min)   0.5 %
Analytical frequency calculation...       15.184 sec (=   0.253 min)  38.0 %
                             ****ORCA TERMINATED NORMALLY****
TOTAL RUN TIME: 0 days 0 hours 0 minutes 40 seconds 731 msec
