
                                 *****************
                                 * O   R   C   A *
                                 *****************

           --- An Ab Initio, DFT and Semiempirical electronic structure package ---

                  #######################################################
                  #                        -***-                        #
                  #          Department of theory and spectroscopy      #
                  #               Directorship: Frank Neese             #
                  #        Max Planck Institute fuer Kohlenforschung    #
                  #                Kaiser Wilhelm Platz 1               #
                  #                 D-45470 Muelheim/Ruhr               #
                  #                      Germany                        #
                  #                                                     #
                  #                  All rights reserved                #
                  #                        -***-                        #
                  #######################################################


                         Program Version 4.2.1 -  RELEASE  -


 With contributions from (in alphabetic order):
   Daniel Aravena         : Magnetic Suceptibility
   Michael Atanasov       : Ab Initio Ligand Field Theory (pilot matlab implementation)
   Alexander A. Auer      : GIAO ZORA, VPT2
   Ute Becker             : Parallelization
   Giovanni Bistoni       : ED, misc. LED, open-shell LED, HFLD
   Martin Brehm           : Molecular dynamics
   Dmytro Bykov           : SCF Hessian
   Vijay G. Chilkuri      : MRCI spin determinant printing, contributions to CSF-ICE
   Dipayan Datta          : RHF DLPNO-CCSD density
   Achintya Kumar Dutta   : EOM-CC, STEOM-CC
   Dmitry Ganyushin       : Spin-Orbit,Spin-Spin,Magnetic field MRCI
   Miquel Garcia          : C-PCM Hessian, Gaussian charge scheme
   Yang Guo               : DLPNO-NEVPT2, CIM, IAO-localization
   Andreas Hansen         : Spin unrestricted coupled pair/coupled cluster methods
   Benjamin Helmich-Paris : CASSCF linear response (MC-RPA)
   Lee Huntington         : MR-EOM, pCC
   Robert Izsak           : Overlap fitted RIJCOSX, COSX-SCS-MP3, EOM
   Christian Kollmar      : KDIIS, OOCD, Brueckner-CCSD(T), CCSD density
   Simone Kossmann        : Meta GGA functionals, TD-DFT gradient, OOMP2, MP2 Hessian
   Martin Krupicka        : AUTO-CI
   Lucas Lang             : DCDCAS
   Dagmar Lenk            : GEPOL surface, SMD
   Dimitrios Liakos       : Extrapolation schemes; Compound Job, initial MDCI parallelization
   Dimitrios Manganas     : Further ROCIS development; embedding schemes
   Dimitrios Pantazis     : SARC Basis sets
   Taras Petrenko         : DFT Hessian,TD-DFT gradient, ASA, ECA, R-Raman, ABS, FL, XAS/XES, NRVS
   Peter Pinski           : DLPNO-MP2, DLPNO-MP2 Gradient
   Christoph Reimann      : Effective Core Potentials
   Marius Retegan         : Local ZFS, SOC
   Christoph Riplinger    : Optimizer, TS searches, QM/MM, DLPNO-CCSD(T), (RO)-DLPNO pert. Triples
   Tobias Risthaus        : Range-separated hybrids, TD-DFT gradient, RPA, STAB
   Michael Roemelt        : Original ROCIS implementation
   Masaaki Saitow         : Open-shell DLPNO-CCSD energy and density
   Barbara Sandhoefer     : DKH picture change effects
   Avijit Sen             : IP-ROCIS
   Kantharuban Sivalingam : CASSCF convergence, NEVPT2, FIC-MRCI
   Bernardo de Souza      : ESD, SOC TD-DFT
   Georgi Stoychev        : AutoAux, RI-MP2 NMR
   Willem Van den Heuvel  : Paramagnetic NMR
   Boris Wezisla          : Elementary symmetry handling
   Frank Wennmohs         : Technical directorship


 We gratefully acknowledge several colleagues who have allowed us to
 interface, adapt or use parts of their codes:
   Stefan Grimme, W. Hujo, H. Kruse,             : VdW corrections, initial TS optimization,
                  C. Bannwarth                     DFT functionals, gCP, sTDA/sTD-DF
   Ed Valeev, F. Pavosevic, A. Kumar             : LibInt (2-el integral package), F12 methods
   Garnet Chan, S. Sharma, J. Yang, R. Olivares  : DMRG
   Ulf Ekstrom                                   : XCFun DFT Library
   Mihaly Kallay                                 : mrcc  (arbitrary order and MRCC methods)
   Andreas Klamt, Michael Diedenhofen            : otool_cosmo (COSMO solvation model)
   Jiri Pittner, Ondrej Demel                    : Mk-CCSD
   Frank Weinhold                                : gennbo (NPA and NBO analysis)
   Christopher J. Cramer and Donald G. Truhlar   : smd solvation model
   Lars Goerigk                                  : TD-DFT with DH, B97 family of functionals
   V. Asgeirsson, H. Jonsson                     : NEB implementation
   FAccTs GmbH                                   : IRC, NEB, NEB-TS, Multilevel, MM, QM/MM, CI optimization
   S Lehtola, MJT Oliveira, MAL Marques          : LibXC Library


 Your calculation uses the libint2 library for the computation of 2-el integrals
 For citations please refer to: http://libint.valeyev.net

 Your ORCA version has been built with support for libXC version: 4.2.3
 For citations please refer to: https://tddft.org/programs/libxc/

 This ORCA versions uses:
   CBLAS   interface :  Fast vector & matrix operations
   LAPACKE interface :  Fast linear algebra routines
   SCALAPACK package :  Parallel linear algebra routines




***************************************
The coordinates will be read from file: init.xyz
***************************************


Your calculation utilizes the geometrical counterpoise correction gCP
Please cite in your paper:
H.Kruse, S. Grimme J.Chem.Phys., 136, (2012), 154101 
   

Your calculation utilizes the atom-pairwise dispersion correction
based on tight binding partial charges (D4)
Cite in your paper:
E.Caldeweyher, C.Bannwarth, S.Grimme, J.Chem.Phys., (2017), 147, 034112.
E.Caldeweyher, S.Ehlert, A.Hansen, H.Neugebauer, S.Grimme, J.Chem.Phys., (2018), in progress.
   

----- Orbital basis set information -----
Your calculation utilizes the basis: def2-SVP
   F. Weigend and R. Ahlrichs, Phys. Chem. Chem. Phys. 7, 3297 (2005).

----- AuxJ basis set information -----
Your calculation utilizes the auxiliary basis: def2/J
   F. Weigend, Phys. Chem. Chem. Phys. 8, 1057 (2006).

================================================================================
                                        WARNINGS
                       Please study these warnings very carefully!
================================================================================


WARNING: Geometry Optimization
  ===> : Switching off AutoStart
         For restart on a previous wavefunction, please use MOREAD

INFO   : the flag for use of LIBINT has been found!

================================================================================
                                       INPUT FILE
================================================================================
NAME = opt.inp
|  1> ! revPBE D4 gCP(DFT/TZ) def2-SVP Opt Freq TightOpt TightSCF Grid4 FinalGrid5 LargePrint
|  2> 
|  3> %pal
|  4>  nprocs 8
|  5> end
|  6> 
|  7> *xyzfile 0 1 init.xyz
|  8> 
|  9>                          ****END OF INPUT****
================================================================================

                       *****************************
                       * Geometry Optimization Run *
                       *****************************

Geometry optimization settings:
Update method            Update   .... BFGS
Choice of coordinates    CoordSys .... Z-matrix Internals
Initial Hessian          InHess   .... Almoef's Model

Convergence Tolerances:
Energy Change            TolE     ....  1.0000e-06 Eh
Max. Gradient            TolMAXG  ....  1.0000e-04 Eh/bohr
RMS Gradient             TolRMSG  ....  3.0000e-05 Eh/bohr
Max. Displacement        TolMAXD  ....  1.0000e-03 bohr
RMS Displacement         TolRMSD  ....  6.0000e-04 bohr
Strict Convergence                ....  False
------------------------------------------------------------------------------
                        ORCA OPTIMIZATION COORDINATE SETUP
------------------------------------------------------------------------------

The optimization will be done in new redundant internal coordinates
Making redundant internal coordinates   ...  (new redundants) done
Evaluating the initial hessian          ...  (Almloef) done
Evaluating the coordinates              ...  done
Calculating the B-matrix                .... done
Calculating the G-matrix                .... done
Diagonalizing the G-matrix              .... done
The first mode is                       ....    1
The number of degrees of freedom        ....    9

    -----------------------------------------------------------------
                    Redundant Internal Coordinates


    -----------------------------------------------------------------
         Definition                    Initial Value    Approx d2E/dq
    -----------------------------------------------------------------
      1. B(O   1,C   0)                  1.3468         0.655744   
      2. B(H   2,O   1)                  0.9670         0.506682   
      3. B(O   3,C   0)                  1.2195         1.046977   
      4. B(H   4,C   0)                  1.0855         0.366040   
      5. A(O   1,C   0,O   3)          119.9334         0.476023   
      6. A(O   1,C   0,H   4)          120.2274         0.355062   
      7. A(O   3,C   0,H   4)          119.8392         0.384785   
      8. A(C   0,O   1,H   2)          120.4212         0.372044   
      9. D(H   2,O   1,C   0,H   4)     -0.0000         0.031825   
     10. D(H   2,O   1,C   0,O   3)    179.9994         0.031825   
    -----------------------------------------------------------------

Number of atoms                         .... 5
Number of degrees of freedom            .... 10

         *************************************************************
         *                GEOMETRY OPTIMIZATION CYCLE   1            *
         *************************************************************
---------------------------------
CARTESIAN COORDINATES (ANGSTROEM)
---------------------------------
  C     -8.735560    2.819900   -1.986470
  O     -7.646940    3.368130   -2.559470
  H     -7.740800    4.076940   -3.210580
  O     -8.606880    1.926520   -1.166450
  H     -9.728020    3.170510   -2.252000

----------------------------
CARTESIAN COORDINATES (A.U.)
----------------------------
  NO LB      ZA    FRAG     MASS         X           Y           Z
   0 C     6.0000    0    12.011  -16.507816    5.328839   -3.753884
   1 O     8.0000    0    15.999  -14.450622    6.364843   -4.836697
   2 H     1.0000    0     1.008  -14.627992    7.704300   -6.067117
   3 O     8.0000    0    15.999  -16.264646    3.640595   -2.204271
   4 H     1.0000    0     1.008  -18.383294    5.991396   -4.255663

--------------------------------
INTERNAL COORDINATES (ANGSTROEM)
--------------------------------
 C      0   0   0     0.000000000000     0.00000000     0.00000000
 O      1   0   0     1.346840241937     0.00000000     0.00000000
 H      2   1   0     0.967039579231   120.42124457     0.00000000
 O      1   2   3     1.219474955544   119.93342063   179.99940608
 H      1   2   3     1.085546131954   120.22740220     0.00000000

---------------------------
INTERNAL COORDINATES (A.U.)
---------------------------
 C      0   0   0     0.000000000000     0.00000000     0.00000000
 O      1   0   0     2.545159203405     0.00000000     0.00000000
 H      2   1   0     1.827439965410   120.42124457     0.00000000
 O      1   2   3     2.304473693155   119.93342063   179.99940608
 H      1   2   3     2.051384895130   120.22740220     0.00000000

---------------------
BASIS SET INFORMATION
---------------------
There are 3 groups of distinct atoms

 Group   1 Type C   : 7s4p1d contracted to 3s2p1d pattern {511/31/1}
 Group   2 Type O   : 7s4p1d contracted to 3s2p1d pattern {511/31/1}
 Group   3 Type H   : 4s1p contracted to 2s1p pattern {31/1}

Atom   0C    basis set group =>   1
Atom   1O    basis set group =>   2
Atom   2H    basis set group =>   3
Atom   3O    basis set group =>   2
Atom   4H    basis set group =>   3

-------------------------
BASIS SET IN INPUT FORMAT
-------------------------

 # Basis set for element : H 
 NewGTO H 
 S 3 
   1      13.0107010000      0.0334854848
   2       1.9622572000      0.2347218709
   3       0.4445379600      0.8137702853
 S 1 
   1       0.1219496200      1.0000000000
 P 1 
   1       0.8000000000      1.0000000000
  end;

 # Basis set for element : C 
 NewGTO C 
 S 5 
   1    1238.4016938000      0.0055173650
   2     186.2900499200      0.0410888285
   3      42.2511763460      0.1822538213
   4      11.6765579320      0.4682845944
   5       3.5930506482      0.4457581734
 S 1 
   1       0.4024514736      1.0000000000
 S 1 
   1       0.1309018267      1.0000000000
 P 3 
   1       9.4680970621      0.0568883320
   2       2.0103545142      0.3129405934
   3       0.5477100471      0.7606501651
 P 1 
   1       0.1526861379      1.0000000000
 D 1 
   1       0.8000000000      1.0000000000
  end;

 # Basis set for element : O 
 NewGTO O 
 S 5 
   1    2266.1767785000     -0.0053893504
   2     340.8701019100     -0.0402347214
   3      77.3631351670     -0.1800818421
   4      21.4796449400     -0.4682885766
   5       6.6589433124     -0.4469261716
 S 1 
   1       0.8097597567      1.0000000000
 S 1 
   1       0.2553077223      1.0000000000
 P 3 
   1      17.7215043170      0.0626302488
   2       3.8635505440      0.3333113849
   3       1.0480920883      0.7414863830
 P 1 
   1       0.2764154441      1.0000000000
 D 1 
   1       1.2000000000      1.0000000000
  end;

---------------------------------
AUXILIARY/J BASIS SET INFORMATION
---------------------------------
There are 3 groups of distinct atoms

 Group   1 Type C   : 12s5p4d2f1g contracted to 6s4p3d1f1g pattern {711111/2111/211/2/1}
 Group   2 Type O   : 12s5p4d2f1g contracted to 6s4p3d1f1g pattern {711111/2111/211/2/1}
 Group   3 Type H   : 5s2p1d contracted to 3s1p1d pattern {311/2/1}

Atom   0C    basis set group =>   1
Atom   1O    basis set group =>   2
Atom   2H    basis set group =>   3
Atom   3O    basis set group =>   2
Atom   4H    basis set group =>   3

-------------------------------------
AUXILIARY/J BASIS SET IN INPUT FORMAT
-------------------------------------

 # Auxiliary/J basis set for element : H 
 NewAuxJGTO H 
 S 3 
   1      15.6752927000      0.1007184237
   2       3.6063578000      0.3404257499
   3       1.2080016000      0.6491996172
 S 1 
   1       0.4726794000      1.0000000000
 S 1 
   1       0.2018100000      1.0000000000
 P 2 
   1       2.0281365000      0.5596620919
   2       0.5358730000      0.5596620919
 D 1 
   1       2.2165124000      1.0000000000
  end;

 # Auxiliary/J basis set for element : C 
 NewAuxJGTO C 
 S 7 
   1    1861.0916331000      0.0134602335
   2     642.9939764000      0.0299160374
   3     235.1105725000      0.1008649584
   4      90.7028894000      0.2370970548
   5      36.7794552000      0.3924037254
   6      15.6046273000      0.3195862154
   7       6.8907294000      0.0530104441
 S 1 
   1       3.1478850000     -1.0000000000
 S 1 
   1       1.4777287000      1.0000000000
 S 1 
   1       0.7076466000      1.0000000000
 S 1 
   1       0.3430122000      1.0000000000
 S 1 
   1       0.1669453000      1.0000000000
 P 2 
   1      13.5472892000     -0.6769313712
   2       5.4669419000     -0.3779500978
 P 1 
   1       2.1751721000      1.0000000000
 P 1 
   1       0.8582194000      1.0000000000
 P 1 
   1       0.3376720000      1.0000000000
 D 2 
   1       5.9287253000     -0.3533329857
   2       1.9809209000     -0.7456525731
 D 1 
   1       0.8055417000     -1.0000000000
 D 1 
   1       0.3531244000     -1.0000000000
 F 2 
   1       1.6755626000      0.6311076882
   2       0.5997536000      0.4968166032
 G 1 
   1       1.0024600000     -1.0000000000
  end;

 # Auxiliary/J basis set for element : O 
 NewAuxJGTO O 
 S 7 
   1    2876.8216605000      0.0168151159
   2    1004.7443032000      0.0340137548
   3     369.7579954000      0.1194951309
   4     142.9442404000      0.2664627624
   5      57.8366425000      0.4202764046
   6      24.3864983000      0.2765077335
   7      10.6622662000      0.0057008815
 S 1 
   1       4.8070437000     -1.0000000000
 S 1 
   1       2.2210770000      1.0000000000
 S 1 
   1       1.0447795000      1.0000000000
 S 1 
   1       0.4968425000      1.0000000000
 S 1 
   1       0.2371384000      1.0000000000
 P 2 
   1      64.2613382000     -0.2731534179
   2      16.3006076000     -0.8168011598
 P 1 
   1       4.3550542000      1.0000000000
 P 1 
   1       1.2019554000      1.0000000000
 P 1 
   1       0.3354196000      1.0000000000
 D 2 
   1       9.2146611000     -0.4661230638
   2       2.8435251000     -0.6600908911
 D 1 
   1       0.9955759000     -1.0000000000
 D 1 
   1       0.3649441000     -1.0000000000
 F 2 
   1       2.6420115000      0.5931563945
   2       0.7345613000      0.5931563945
 G 1 
   1       1.3931000000     -1.0000000000
  end;



           ************************************************************
           *        Program running with 8 parallel MPI-processes     *
           *              working on a common directory               *
           ************************************************************
------------------------------------------------------------------------------
                           ORCA GTO INTEGRAL CALCULATION
                           -- RI-GTO INTEGRALS CHOSEN --
------------------------------------------------------------------------------

                         BASIS SET STATISTICS AND STARTUP INFO

Gaussian basis set:
 # of primitive gaussian shells          ...   46
 # of primitive gaussian functions       ...   86
 # of contracted shells                  ...   24
 # of contracted basis functions         ...   52
 Highest angular momentum                ...    2
 Maximum contraction depth               ...    5
Auxiliary gaussian basis set:
 # of primitive gaussian shells          ...   88
 # of primitive gaussian functions       ...  242
 # of contracted shells                  ...   55
 # of contracted aux-basis functions     ...  169
 Highest angular momentum                ...    4
 Maximum contraction depth               ...    7
Ratio of auxiliary to basis functions    ...  3.25
Integral package used                  ... LIBINT
 One Electron integrals                  ... done
 Ordering auxiliary basis shells         ... done
 Integral threshhold             Thresh  ...  2.500e-11
 Primitive cut-off               TCut    ...  2.500e-12
 Pre-screening matrix                    ... done
 Shell pair data                         ... 
 Ordering of the shell pairs             ... done (   0.000 sec) 299 of 300 pairs
 Determination of significant pairs      ... done (   0.000 sec)
 Creation of shell pair data             ... done (   0.000 sec)
 Storage of shell pair data              ... done (   0.020 sec)
 Shell pair data done in (   0.020 sec)
 Computing two index integrals           ... done
 Cholesky decomposition of the V-matrix  ... done


Timings:
 Total evaluation time                   ...   0.134 sec (  0.002 min)
 One electron matrix time                ...   0.006 sec (  0.000 min) =  4.4%
 Schwartz matrix evaluation time         ...   0.083 sec (  0.001 min) = 62.1%
 Two index repulsion integral time       ...   0.001 sec (  0.000 min) =  0.7%
 Cholesky decomposition of V             ...   0.004 sec (  0.000 min) =  3.2%
 Three index repulsion integral time     ...   0.000 sec (  0.000 min) =  0.0%



           ************************************************************
           *        Program running with 8 parallel MPI-processes     *
           *              working on a common directory               *
           ************************************************************
-------------------------------------------------------------------------------
                                 ORCA SCF
-------------------------------------------------------------------------------

------------
SCF SETTINGS
------------
Hamiltonian:
 Density Functional     Method          .... DFT(GTOs)
 Exchange Functional    Exchange        .... PBE
   PBE kappa parameter   XKappa         ....  1.245000
   PBE mue parameter    XMuePBE         ....  0.219520
 Correlation Functional Correlation     .... PBE
   PBE beta parameter  CBetaPBE         ....  0.066725
 LDA part of GGA corr.  LDAOpt          .... PW91-LDA
 Gradients option       PostSCFGGA      .... off
   Density functional embedding theory  .... OFF
   NL short-range parameter             ....  3.700000
 RI-approximation to the Coulomb term is turned on
   Number of auxiliary basis functions  .... 169


General Settings:
 Integral files         IntName         .... opt
 Hartree-Fock type      HFTyp           .... RHF
 Total Charge           Charge          ....    0
 Multiplicity           Mult            ....    1
 Number of Electrons    NEL             ....   24
 Basis Dimension        Dim             ....   52
 Nuclear Repulsion      ENuc            ....     69.5187819310 Eh

Convergence Acceleration:
 DIIS                   CNVDIIS         .... on
   Start iteration      DIISMaxIt       ....    12
   Startup error        DIISStart       ....  0.200000
   # of expansion vecs  DIISMaxEq       ....     5
   Bias factor          DIISBfac        ....   1.050
   Max. coefficient     DIISMaxC        ....  10.000
 Newton-Raphson         CNVNR           .... off
 SOSCF                  CNVSOSCF        .... on
   Start iteration      SOSCFMaxIt      ....   150
   Startup grad/error   SOSCFStart      ....  0.003300
 Level Shifting         CNVShift        .... on
   Level shift para.    LevelShift      ....    0.2500
   Turn off err/grad.   ShiftErr        ....    0.0010
 Zerner damping         CNVZerner       .... off
 Static damping         CNVDamp         .... on
   Fraction old density DampFac         ....    0.7000
   Max. Damping (<1)    DampMax         ....    0.9800
   Min. Damping (>=0)   DampMin         ....    0.0000
   Turn off err/grad.   DampErr         ....    0.1000
 Fernandez-Rico         CNVRico         .... off

SCF Procedure:
 Maximum # iterations   MaxIter         ....   125
 SCF integral mode      SCFMode         .... Direct
   Integral package                     .... LIBINT
 Reset frequency        DirectResetFreq ....    20
 Integral Threshold     Thresh          ....  2.500e-11 Eh
 Primitive CutOff       TCut            ....  2.500e-12 Eh

Convergence Tolerance:
 Convergence Check Mode ConvCheckMode   .... Total+1el-Energy
 Convergence forced     ConvForced      .... 0
 Energy Change          TolE            ....  1.000e-08 Eh
 1-El. energy change                    ....  1.000e-05 Eh
 Orbital Gradient       TolG            ....  1.000e-05
 Orbital Rotation angle TolX            ....  1.000e-05
 DIIS Error             TolErr          ....  5.000e-07


Diagonalization of the overlap matrix:
Smallest eigenvalue                        ... 1.595e-02
Time for diagonalization                   ...    0.001 sec
Threshold for overlap eigenvalues          ... 1.000e-08
Number of eigenvalues below threshold      ... 0
Time for construction of square roots      ...    0.001 sec
Total time needed                          ...    0.002 sec

-------------------
DFT GRID GENERATION
-------------------

General Integration Accuracy     IntAcc      ...  4.670
Radial Grid Type                 RadialGrid  ... Gauss-Chebyshev
Angular Grid (max. acc.)         AngularGrid ... Lebedev-302
Angular grid pruning method      GridPruning ... 3 (G Style)
Weight generation scheme         WeightScheme... Becke
Basis function cutoff            BFCut       ...    1.0000e-11
Integration weight cutoff        WCut        ...    1.0000e-14
Grids for H and He will be reduced by one unit

# of grid points (after initial pruning)     ...  25424 (   0.0 sec)
# of grid points (after weights+screening)   ...  24867 (   0.0 sec)
nearest neighbour list constructed           ...    0.0 sec
Grid point re-assignment to atoms done       ...    0.0 sec
Grid point division into batches done        ...    0.1 sec
Reduced shell lists constructed in    0.1 sec

Total number of grid points                  ...    24867
Total number of batches                      ...      390
Average number of points per batch           ...       63
Average number of grid points per atom       ...     4973
Average number of shells per batch           ...    22.38 (93.25%)
Average number of basis functions per batch  ...    49.82 (95.81%)
Average number of large shells per batch     ...    21.42 (95.71%)
Average number of large basis fcns per batch ...    48.18 (96.71%)
Maximum spatial batch extension              ...   3.39, 14.78, 14.09 au
Average spatial batch extension              ...   0.15,  0.21,  0.21 au

Time for grid setup =    0.145 sec

------------------------------
INITIAL GUESS: MODEL POTENTIAL
------------------------------
Loading Hartree-Fock densities                     ... done
Calculating cut-offs                               ... done
Setting up the integral package                    ... done
Initializing the effective Hamiltonian             ... done
Starting the Coulomb interaction                   ... done (   0.0 sec)
Reading the grid                                   ... done
Mapping shells                                     ... done
Starting the XC term evaluation                    ... done (   0.0 sec)
  promolecular density results
     # of electrons  =     23.998993948
     EX              =    -22.125028665
     EC              =     -0.792932529
     EX+EC           =    -22.917961194
Transforming the Hamiltonian                       ... done (   0.0 sec)
Diagonalizing the Hamiltonian                      ... done (   0.0 sec)
Back transforming the eigenvectors                 ... done (   0.0 sec)
Now organizing SCF variables                       ... done
                      ------------------
                      INITIAL GUESS DONE (   0.3 sec)
                      ------------------
----------------------
INITIAL GUESS ORBITALS
----------------------
                      0         1         2         3         4         5   
                 -18.96801 -18.95306 -10.06455  -1.09828  -1.03393  -0.66326
                   2.00000   2.00000   2.00000   2.00000   2.00000   2.00000
                  --------  --------  --------  --------  --------  --------
  0C   1s        -0.000121 -0.000298 -0.987836  0.151584 -0.023232  0.159140
  0C   2s        -0.001146 -0.001127 -0.050466 -0.295643  0.049140 -0.351754
  0C   3s        -0.008326 -0.010780  0.010113 -0.015714 -0.003401 -0.059103
  0C   1pz        0.000085  0.000601 -0.000802 -0.059520  0.142120  0.090527
  0C   1px        0.000115  0.000337  0.000388 -0.077709 -0.069579 -0.097872
  0C   1py       -0.000100 -0.000671  0.000841  0.069256 -0.148906 -0.091395
  0C   2pz        0.002234 -0.006362 -0.003177 -0.001476  0.020348  0.006275
  0C   2px       -0.007369 -0.001654 -0.008657 -0.007107  0.001966 -0.020793
  0C   2py       -0.001936  0.006974  0.003987  0.002051 -0.022089 -0.005433
  0C   1dz2      -0.000212  0.000612  0.000999 -0.000377  0.005696  0.009631
  0C   1dxz      -0.000983  0.000286 -0.000008  0.005725  0.011414  0.006101
  0C   1dyz       0.000119 -0.001485  0.003341  0.024028 -0.010027 -0.000693
  0C   1dx2y2     0.000509 -0.001319 -0.001194  0.003661 -0.012817 -0.017436
  0C   1dxy       0.001008 -0.000243  0.000397 -0.005000 -0.011411 -0.004402
  1O   1s         0.988608  0.001653  0.000049 -0.175064 -0.225804  0.050094
  1O   2s        -0.041867  0.000198 -0.001247 -0.359644 -0.470739  0.108286
  1O   3s         0.025084  0.000385  0.009232 -0.170052 -0.223921  0.053132
  1O   1pz        0.000510  0.000058  0.000164 -0.011427  0.025001 -0.277673
  1O   1px        0.001547 -0.000392 -0.000825  0.066333  0.066578  0.226630
  1O   1py       -0.000650 -0.000037 -0.000124  0.008055 -0.031279  0.285079
  1O   2pz        0.003021  0.000889  0.003525 -0.011313 -0.006423 -0.092955
  1O   2px       -0.004334  0.001228 -0.005089  0.016832  0.010958  0.106269
  1O   2py       -0.002981 -0.001039 -0.003477  0.011124  0.006226  0.093474
  1O   1dz2      -0.000210  0.000122 -0.000393  0.001114  0.001169  0.004551
  1O   1dxz      -0.000002 -0.000155 -0.000885  0.003567  0.001429  0.006662
  1O   1dyz       0.001101  0.000016 -0.000769  0.004505  0.003318 -0.003545
  1O   1dx2y2     0.000533 -0.000187  0.000668 -0.001669 -0.001674 -0.009228
  1O   1dxy       0.000010  0.000194  0.000818 -0.003335 -0.001100 -0.006273
  2H   1s         0.002400  0.000407 -0.000238 -0.083495 -0.137275  0.262680
  2H   2s        -0.001229 -0.000660 -0.000744  0.001280  0.003504  0.027283
  2H   1pz        0.002178 -0.000054 -0.000498 -0.010745 -0.016968  0.020628
  2H   1px        0.000841  0.000107  0.001263  0.000502 -0.000003  0.011250
  2H   1py       -0.002405  0.000052  0.000456  0.011565  0.018314 -0.022990
  3O   1s        -0.001556  0.988695 -0.000083 -0.197504  0.184284  0.095191
  3O   2s         0.000331 -0.041819 -0.000622 -0.404370  0.383062  0.206492
  3O   3s         0.001063  0.029395  0.011883 -0.187842  0.172915  0.166548
  3O   1pz       -0.000235  0.001744 -0.000882  0.091401 -0.069397  0.081004
  3O   1px       -0.000146  0.000283 -0.000328  0.006717 -0.023032 -0.026926
  3O   1py        0.000263 -0.001900  0.000973 -0.099086  0.076388 -0.085695
  3O   2pz       -0.000248 -0.004193 -0.005664  0.015300 -0.009316  0.039145
  3O   2px        0.001804 -0.000594  0.000752  0.001911 -0.005570 -0.010675
  3O   2py        0.000151  0.004564  0.006064 -0.016637  0.010414 -0.041562
  3O   1dz2       0.000150 -0.000093  0.000180 -0.002182  0.001240 -0.001388
  3O   1dxz      -0.000180 -0.000061  0.000038 -0.000682  0.002391  0.000837
  3O   1dyz      -0.000032  0.000416 -0.001046  0.010343 -0.006865  0.006137
  3O   1dx2y2    -0.000240  0.000232 -0.000477  0.005449 -0.003508  0.003233
  3O   1dxy       0.000223  0.000065 -0.000053  0.000756 -0.002617 -0.000897
  4H   1s         0.000036  0.000301  0.004652 -0.030476  0.005695 -0.116122
  4H   2s        -0.000808 -0.000334 -0.008628 -0.005660  0.008082 -0.027481
  4H   1pz       -0.000475  0.000670  0.000819 -0.001934  0.000380 -0.000850
  4H   1px        0.000646 -0.000101  0.002918 -0.007014  0.000653 -0.011314
  4H   1py        0.000471 -0.000716 -0.001073  0.002540 -0.000452  0.001647
                      6         7         8         9        10        11   
                  -0.59447  -0.52306  -0.47775  -0.43802  -0.39182  -0.36315
                   2.00000   2.00000   2.00000   2.00000   2.00000   2.00000
                  --------  --------  --------  --------  --------  --------
  0C   1s         0.116734 -0.021591  0.000000 -0.012588 -0.000001 -0.033034
  0C   2s        -0.248931  0.066123 -0.000000  0.031397  0.000003  0.072934
  0C   3s        -0.072339 -0.031192 -0.000002 -0.042653 -0.000001  0.079578
  0C   1pz        0.008277  0.235431 -0.242314  0.015914  0.037787 -0.041295
  0C   1px        0.341365  0.049518 -0.014482  0.202457  0.002255 -0.118630
  0C   1py       -0.030953 -0.257302 -0.224504 -0.030241  0.035014  0.052220
  0C   2pz        0.021193  0.036160 -0.103296 -0.050031  0.010618 -0.028546
  0C   2px        0.085623  0.013052 -0.006177  0.031356  0.000637  0.041779
  0C   2py       -0.028397 -0.039870 -0.095710  0.051977  0.009837  0.028116
  0C   1dz2      -0.004680  0.003106 -0.012665  0.009552  0.033865 -0.007449
  0C   1dxz       0.002340  0.008347 -0.011679  0.003526 -0.009846  0.034297
  0C   1dyz       0.006804 -0.008333  0.001843 -0.016479 -0.002278  0.011708
  0C   1dx2y2     0.008800 -0.007710 -0.008657 -0.019432  0.018236  0.010209
  0C   1dxy      -0.003200 -0.008630 -0.009900 -0.002457 -0.011424 -0.037676
  1O   1s         0.042125  0.026540  0.000001 -0.077956 -0.000000 -0.020376
  1O   2s         0.098137  0.056035  0.000002 -0.166034  0.000000 -0.048918
  1O   3s         0.077196  0.062702  0.000003 -0.231818 -0.000003 -0.089413
  1O   1pz        0.184880 -0.013726 -0.276365 -0.186073 -0.385894 -0.046298
  1O   1px        0.041865  0.245740 -0.016515 -0.447946 -0.023059  0.239983
  1O   1py       -0.202245 -0.001039 -0.256058  0.229720 -0.357533  0.034502
  1O   2pz        0.075925  0.003692 -0.161420 -0.086569 -0.251554 -0.023819
  1O   2px        0.036415  0.132516 -0.009646 -0.256032 -0.015030  0.160847
  1O   2py       -0.084298 -0.012535 -0.149562  0.109948 -0.233069  0.015340
  1O   1dz2       0.002224  0.004808 -0.003134 -0.003083  0.003053  0.000719
  1O   1dxz      -0.004007 -0.001325  0.008746  0.003280  0.006481 -0.000530
  1O   1dyz      -0.000171 -0.003092 -0.000294 -0.004302 -0.000680 -0.001246
  1O   1dx2y2    -0.003332 -0.008571 -0.000751  0.004203  0.002525 -0.001361
  1O   1dxy       0.004763  0.002331  0.008286 -0.004400  0.005768  0.000664
  2H   1s        -0.137669  0.022867 -0.000000  0.195068  0.000002  0.025334
  2H   2s        -0.018120  0.010026  0.000002  0.029967  0.000001  0.016603
  2H   1pz       -0.010510 -0.000150 -0.009003  0.013342 -0.014568  0.000537
  2H   1px        0.000317  0.010480 -0.000538 -0.012782 -0.000871  0.008356
  2H   1py        0.011323 -0.000514 -0.008342 -0.013576 -0.013498 -0.001118
  3O   1s         0.058157 -0.105771 -0.000000 -0.004904  0.000000 -0.004836
  3O   2s         0.129950 -0.219835 -0.000001 -0.011169  0.000000 -0.015869
  3O   3s         0.092741 -0.278778 -0.000004  0.026663 -0.000000  0.002422
  3O   1pz        0.068831 -0.340260 -0.301090 -0.132879  0.329551 -0.015806
  3O   1px        0.201025 -0.017995 -0.017998  0.230626  0.019705  0.597972
  3O   1py       -0.087259  0.368422 -0.278959  0.128545  0.305323 -0.021527
  3O   2pz        0.036647 -0.156542 -0.166206 -0.076292  0.207525 -0.016082
  3O   2px        0.105327 -0.001966 -0.009934  0.133524  0.012408  0.373478
  3O   2py       -0.046348  0.169090 -0.153990  0.073731  0.192267 -0.006743
  3O   1dz2       0.000581  0.002956  0.016957  0.002810 -0.010827  0.001056
  3O   1dxz      -0.009173  0.000903  0.001742 -0.007045 -0.002161 -0.008123
  3O   1dyz       0.003471 -0.013774 -0.001571 -0.003861  0.001071 -0.000504
  3O   1dx2y2     0.000724 -0.007344  0.009929 -0.004523 -0.006465 -0.000846
  3O   1dxy       0.010091 -0.000991  0.000436  0.007951 -0.001246  0.008878
  4H   1s        -0.295110 -0.105941  0.000000 -0.161968  0.000007  0.259072
  4H   2s        -0.040956 -0.025466 -0.000000 -0.061759  0.000005  0.119081
  4H   1pz       -0.007052  0.001529 -0.005940 -0.002363  0.001062  0.001376
  4H   1px       -0.021011 -0.008248 -0.000355 -0.004941  0.000064  0.007401
  4H   1py        0.008966 -0.001118 -0.005503  0.002869  0.000983 -0.001963
                     12        13        14        15        16        17   
                  -0.10958   0.00210   0.05284   0.16121   0.17358   0.33258
                   0.00000   0.00000   0.00000   0.00000   0.00000   0.00000
                  --------  --------  --------  --------  --------  --------
  0C   1s         0.000001 -0.003898  0.157437  0.049829  0.039400 -0.219364
  0C   2s        -0.000002  0.003500 -0.400648 -0.004303 -0.061572  1.239342
  0C   3s         0.000016 -0.133840 -1.700445 -1.803656 -0.242644 -1.880714
  0C   1pz       -0.457905 -0.009118  0.132476 -0.095713  0.195446 -0.114186
  0C   1px       -0.027366  0.187124  0.152922 -0.192130 -0.408969  0.581137
  0C   1py       -0.424249 -0.002220 -0.152859  0.115676 -0.184546  0.085733
  0C   2pz       -0.388093  0.093607  0.262766 -0.902830  0.814679  0.373505
  0C   2px       -0.023199  0.284059  0.444201 -0.582653 -1.162534 -0.588429
  0C   2py       -0.359581 -0.119364 -0.312246  1.012077 -0.804341 -0.365141
  0C   1dz2       0.010141 -0.002116 -0.011207 -0.002953 -0.022670 -0.021775
  0C   1dxz       0.010663  0.006754 -0.001723  0.002702 -0.027957  0.041472
  0C   1dyz      -0.001560  0.009862 -0.017522 -0.039006  0.000667  0.043781
  0C   1dx2y2     0.007087  0.004304  0.016738 -0.001360  0.042639  0.038901
  0C   1dxy       0.009137 -0.007188 -0.001526 -0.005479  0.024823 -0.046927
  1O   1s         0.000000 -0.108452  0.061084  0.042035  0.067248 -0.047304
  1O   2s         0.000001 -0.235868  0.141637  0.105119  0.129929 -0.189930
  1O   3s        -0.000004 -0.758938  0.401351  0.209713  0.864632  0.721392
  1O   1pz        0.197861  0.163491  0.032767  0.138257  0.188983 -0.069871
  1O   1px        0.011824  0.068179 -0.171440  0.006703 -0.289939  0.209448
  1O   1py        0.183318 -0.180858 -0.024304 -0.149657 -0.185268  0.061907
  1O   2pz        0.179439  0.190243  0.024207  0.288148  0.337429  0.097035
  1O   2px        0.010724  0.055440 -0.236454 -0.022595 -0.497990 -0.098113
  1O   2py        0.166250 -0.208907 -0.010880 -0.309556 -0.332068 -0.098414
  1O   1dz2      -0.011550  0.003626  0.002970 -0.008336  0.006066 -0.002939
  1O   1dxz       0.009419 -0.002832  0.005574  0.002344  0.007114 -0.041833
  1O   1dyz       0.000386 -0.008672 -0.004215  0.008609 -0.007730 -0.054989
  1O   1dx2y2    -0.005495 -0.007217 -0.006476  0.015360 -0.012540  0.001848
  1O   1dxy       0.009488  0.003398 -0.005497 -0.003928 -0.006627  0.041256
  2H   1s        -0.000001  0.283616 -0.025763 -0.024873  0.165909  0.365628
  2H   2s         0.000008  1.169535 -0.177902  0.349898  0.641865 -0.062646
  2H   1pz        0.009866 -0.012455  0.001133  0.005469 -0.010347 -0.031360
  2H   1px        0.000589  0.001943 -0.014181 -0.009321  0.001230  0.087127
  2H   1py        0.009140  0.013317 -0.000307 -0.005302  0.011088  0.028229
  3O   1s        -0.000000 -0.016200  0.021381  0.121536 -0.032714 -0.017517
  3O   2s         0.000002 -0.035449  0.055012  0.237025 -0.057863 -0.071987
  3O   3s        -0.000014 -0.135234  0.086204  1.607543 -0.554236  0.159884
  3O   1pz        0.269119  0.033716 -0.064792 -0.119443  0.028210  0.129448
  3O   1px        0.016085 -0.099574  0.003645  0.005143  0.202997 -0.036420
  3O   1py        0.249337 -0.029970  0.069700  0.128589 -0.043545 -0.137368
  3O   2pz        0.249917  0.050783 -0.055461 -0.420104  0.086939  0.007600
  3O   2px        0.014937 -0.096580 -0.053752  0.039213  0.337699  0.078901
  3O   2py        0.231539 -0.048580  0.063322  0.450898 -0.115619 -0.013300
  3O   1dz2       0.012321  0.000099 -0.002364  0.000219 -0.004791  0.005794
  3O   1dxz       0.002451 -0.004325 -0.002815  0.004301  0.011884 -0.014211
  3O   1dyz      -0.001218  0.000818 -0.000608 -0.013876 -0.002386 -0.030147
  3O   1dx2y2     0.007356  0.000513  0.004328 -0.003093  0.006328 -0.012828
  3O   1dxy       0.001410  0.004679  0.002448 -0.005231 -0.013867  0.014957
  4H   1s         0.000002 -0.018454  0.213311  0.190080  0.116168  0.255031
  4H   2s        -0.000010  0.427639  1.927443 -0.420774 -0.757327  0.265607
  4H   1pz       -0.026244 -0.010283  0.000475 -0.012654  0.034445 -0.006203
  4H   1px       -0.001568 -0.001048 -0.029535  0.015876 -0.012411 -0.018430
  4H   1py       -0.024315  0.011167  0.001392  0.012634 -0.036376  0.007884
                     18        19        20        21        22        23   
                   0.40167   0.44874   0.49103   0.53753   0.54623   0.74063
                   0.00000   0.00000   0.00000   0.00000   0.00000   0.00000
                  --------  --------  --------  --------  --------  --------
  0C   1s         0.000005 -0.040905  0.182059  0.067597  0.112534 -0.034255
  0C   2s        -0.000015  0.221172 -0.909405 -0.661496 -0.825981  0.613145
  0C   3s         0.000035 -0.533662  1.019541  0.899056  2.316331  0.231789
  0C   1pz        0.681501 -0.303150 -0.560739 -0.060214  0.307446  0.153680
  0C   1px        0.040778  0.120807  0.219195  0.029048  0.692005  0.034075
  0C   1py        0.631480  0.319341  0.591025  0.063126 -0.376504 -0.168072
  0C   2pz       -0.898407  0.500826  0.601510 -0.410185 -0.539638  0.110743
  0C   2px       -0.053798 -1.127200 -0.228318 -0.924959 -1.937407  0.187065
  0C   2py       -0.832426 -0.467757 -0.634423  0.502374  0.707451 -0.131602
  0C   1dz2       0.014504  0.055684 -0.008958  0.012591 -0.030580  0.016341
  0C   1dxz       0.020889 -0.017411  0.043677  0.010787  0.043887  0.023044
  0C   1dyz      -0.002606 -0.020605 -0.100642  0.048851  0.034030 -0.135294
  0C   1dx2y2     0.010806 -0.096627 -0.005939 -0.015391  0.052193 -0.052145
  0C   1dxy       0.018264  0.029944 -0.053610 -0.006284 -0.051953 -0.027680
  1O   1s         0.000002  0.033957 -0.031316 -0.023775  0.027703  0.031097
  1O   2s         0.000010  0.066513 -0.128733 -0.116523  0.103103  0.156735
  1O   3s         0.000024  0.657485  0.222244  0.394088  0.043886 -0.174325
  1O   1pz        0.072810 -0.067187  0.006240  0.273204 -0.064219  0.115478
  1O   1px        0.004361  0.120414 -0.041351  0.340061  0.044024  0.125506
  1O   1py        0.067475  0.064739 -0.004077 -0.316816  0.066453 -0.132755
  1O   2pz        0.103722 -0.008030 -0.050121  0.034435  0.177489 -0.198658
  1O   2px        0.006203 -0.162349 -0.007057 -0.209124  0.032572 -0.096231
  1O   2py        0.096094  0.019133  0.054546 -0.023668 -0.193652  0.220648
  1O   1dz2       0.010069 -0.026672 -0.006083  0.010331  0.000503 -0.004613
  1O   1dxz      -0.009528 -0.024248 -0.007345  0.013558 -0.011547  0.002592
  1O   1dyz      -0.000250  0.043563 -0.015954 -0.066079  0.024069  0.001194
  1O   1dx2y2     0.004638  0.055729  0.008903 -0.029799  0.004376  0.007778
  1O   1dxy      -0.009482  0.022107  0.005693 -0.015455  0.013632 -0.003733
  2H   1s        -0.000035 -0.718391  0.110081  0.856888 -0.269036 -0.032562
  2H   2s         0.000042  0.755033  0.011325 -1.005458  0.314719 -0.095228
  2H   1pz       -0.016922  0.029832 -0.024446 -0.111667  0.049033 -0.031204
  2H   1px       -0.001008  0.046618  0.037715 -0.056213 -0.010035 -0.008615
  2H   1py       -0.015686 -0.035205  0.023955  0.124150 -0.052276  0.034236
  3O   1s         0.000008  0.024075  0.064763  0.022737 -0.015362 -0.136556
  3O   2s         0.000032  0.098729  0.228328  0.033342 -0.051857 -0.569895
  3O   3s        -0.000033 -0.208676 -0.475215  0.398429  0.167277  0.020125
  3O   1pz        0.052568 -0.113291 -0.272943 -0.014051  0.059642 -0.462010
  3O   1px        0.003147  0.260630 -0.123068  0.165489  0.094398 -0.049971
  3O   1py        0.048741  0.105464  0.302526  0.004500 -0.070466  0.501888
  3O   2pz        0.098050 -0.030136 -0.141261 -0.206683  0.011094  0.881187
  3O   2px        0.005870  0.125954  0.015272  0.028465  0.150605  0.084440
  3O   2py        0.090850  0.024390  0.151481  0.221241 -0.021689 -0.956546
  3O   1dz2      -0.025995 -0.005157 -0.014128 -0.000510  0.009597  0.005312
  3O   1dxz      -0.001885  0.002576 -0.022492  0.006277 -0.011559  0.004295
  3O   1dyz       0.002361  0.026062  0.073208  0.009571 -0.024340 -0.012813
  3O   1dx2y2    -0.015124  0.012598  0.038588  0.001562 -0.018795 -0.011676
  3O   1dxy       0.000060 -0.002602  0.024497 -0.006337  0.013262 -0.004038
  4H   1s         0.000002 -0.785069  0.563971 -0.591534  0.279507  0.064173
  4H   2s        -0.000066  0.291966 -0.779135 -0.500374 -2.527289  0.028838
  4H   1pz       -0.003234  0.006306 -0.044717 -0.003801 -0.029397 -0.062144
  4H   1px       -0.000196  0.055678 -0.030128  0.020313 -0.145315  0.010412
  4H   1py       -0.002987 -0.010397  0.050208  0.002792  0.041104  0.066401
                     24        25        26        27        28        29   
                   0.80508   0.82436   0.86278   0.95547   1.08723   1.15834
                   0.00000   0.00000   0.00000   0.00000   0.00000   0.00000
                  --------  --------  --------  --------  --------  --------
  0C   1s        -0.000001 -0.020835 -0.000002  0.002626  0.022500 -0.001933
  0C   2s         0.000030  0.410588  0.000027  0.043389 -0.383892  0.048455
  0C   3s         0.000119  0.864235  0.000031  1.121128 -1.048377  1.406196
  0C   1pz       -0.022605  0.074120  0.039119  0.006292 -0.060650 -0.076246
  0C   1px       -0.001329  0.164757  0.002341  0.153808  0.003204  0.101836
  0C   1py       -0.020965 -0.090625  0.036236 -0.016715  0.065260  0.075720
  0C   2pz        0.151931 -0.261958 -0.426799  0.009065 -0.552761 -0.749793
  0C   2px        0.009056  0.135515 -0.025455 -1.156035 -2.391838  0.070577
  0C   2py        0.140855  0.273996 -0.395434  0.064774  0.750877  0.804716
  0C   1dz2      -0.017451 -0.001463  0.001541  0.024053  0.021594 -0.019606
  0C   1dxz      -0.028810 -0.065137  0.066926 -0.133518  0.023187 -0.042464
  0C   1dyz       0.003351 -0.068528 -0.004454 -0.020267 -0.022788 -0.005256
  0C   1dx2y2    -0.013449  0.000201  0.008885 -0.027308 -0.043630  0.038308
  0C   1dxy      -0.025365  0.065780  0.061646  0.146828 -0.021076  0.040693
  1O   1s        -0.000012 -0.144142 -0.000003  0.054949 -0.137806  0.179214
  1O   2s        -0.000061 -0.732583 -0.000015  0.344110 -0.856624  1.323425
  1O   3s         0.000058  0.749417  0.000000 -0.206457  1.769037 -2.992461
  1O   1pz        0.625451  0.214154 -0.236132  0.128969 -0.329955 -0.094241
  1O   1px        0.037320 -0.626282 -0.014130 -0.082042 -0.162712 -0.422853
  1O   1py        0.579451 -0.190842 -0.218801 -0.133914  0.366606  0.128982
  1O   2pz       -0.757240 -0.629228  0.363738 -0.238486  1.242175  0.531121
  1O   2px       -0.045144  1.067071  0.021774  0.288934  0.173061  1.120708
  1O   2py       -0.701501  0.610421  0.337079  0.238777 -1.351848 -0.645527
  1O   1dz2       0.013011 -0.007409  0.009178 -0.007706 -0.026571 -0.005823
  1O   1dxz      -0.005462 -0.009539  0.007952 -0.025405  0.057516 -0.025568
  1O   1dyz      -0.000768 -0.004604 -0.001302 -0.014765 -0.041572 -0.090602
  1O   1dx2y2     0.006807  0.013232  0.006212  0.014199  0.031751 -0.000844
  1O   1dxy      -0.005938  0.008307  0.006703  0.024665 -0.069355  0.021486
  2H   1s        -0.000000 -0.113357 -0.000008 -0.060507  0.616456  0.950608
  2H   2s        -0.000084 -0.889170 -0.000037 -0.044532  0.187316  0.204262
  2H   1pz       -0.051412 -0.115288  0.003166 -0.031415  0.112191  0.108816
  2H   1px       -0.003072  0.035848  0.000191  0.100251 -0.288485  0.213870
  2H   1py       -0.047615  0.122131  0.002943  0.027443 -0.102466 -0.131245
  3O   1s         0.000002  0.047227  0.000004  0.029554 -0.088192  0.005635
  3O   2s         0.000015  0.310273  0.000029  0.198589 -0.645099  0.018752
  3O   3s        -0.000023 -0.522424 -0.000059 -0.432347  1.928008  0.253835
  3O   1pz       -0.264836 -0.053113 -0.612218  0.072336 -0.051383 -0.063096
  3O   1px       -0.015807  0.205616 -0.036570 -0.770019 -0.230456  0.179705
  3O   1py       -0.245347  0.044155 -0.567219 -0.028417  0.070309  0.056512
  3O   2pz        0.289950  0.250490  0.853589 -0.047143 -0.276973  0.072027
  3O   2px        0.017315 -0.187522  0.050985  1.387667  0.695540 -0.304164
  3O   2py        0.268574 -0.258379  0.790822 -0.038611  0.254110 -0.058118
  3O   1dz2       0.009293  0.004981  0.014814 -0.002841 -0.023192  0.004959
  3O   1dxz      -0.009218  0.010223  0.011017  0.055153  0.001438 -0.006534
  3O   1dyz      -0.000206 -0.013163 -0.001985  0.011506 -0.015670  0.002887
  3O   1dx2y2     0.004223 -0.011928  0.009808 -0.000417  0.037207 -0.007225
  3O   1dxy      -0.009148 -0.010455  0.009142 -0.058920 -0.007474  0.008220
  4H   1s        -0.000020 -0.116405  0.000001 -0.330265 -0.534846 -0.333221
  4H   2s        -0.000047 -0.093282  0.000027 -0.700019 -0.920822 -0.441140
  4H   1pz        0.053049  0.011672 -0.139789 -0.010003  0.040594 -0.147615
  4H   1px        0.003166 -0.054144 -0.008356 -0.025289  0.042742  0.128678
  4H   1py        0.049153 -0.009107 -0.129515  0.012429 -0.046570  0.151027
                     30        31        32        33        34        35   
                   1.16122   1.20507   1.33531   1.50714   1.53518   1.57147
                   0.00000   0.00000   0.00000   0.00000   0.00000   0.00000
                  --------  --------  --------  --------  --------  --------
  0C   1s        -0.000003  0.031295  0.000001  0.000000 -0.013221 -0.089066
  0C   2s         0.000032 -0.557718  0.000005 -0.000002  0.139808  0.768242
  0C   3s         0.000065 -1.703583  0.000033  0.000019  0.635282  0.485018
  0C   1pz        0.022423 -0.193592  0.027938  0.045046 -0.261858 -0.120325
  0C   1px        0.001335  0.018722  0.001669  0.002699  0.204346  0.168049
  0C   1py        0.020757  0.207756  0.025875  0.041754  0.269447  0.119026
  0C   2pz       -0.320716 -1.006271  0.330174  0.126453 -1.087880  0.371556
  0C   2px       -0.019122  0.073345  0.019721  0.007601  1.190913  0.771907
  0C   2py       -0.297242  1.081346  0.305859  0.117258  1.097354 -0.450823
  0C   1dz2      -0.037286 -0.076888  0.427891 -0.586563 -0.122549  0.134319
  0C   1dxz      -0.345429 -0.079397  0.035744  0.219096 -0.265339 -0.027901
  0C   1dyz       0.025480  0.155230 -0.039107  0.036321  0.054666  0.022522
  0C   1dx2y2    -0.062666  0.166521  0.249538 -0.310028  0.253225 -0.223631
  0C   1dxy      -0.316143  0.075313  0.003416  0.242689  0.258585  0.060791
  1O   1s         0.000001  0.000754  0.000002  0.000001  0.049600  0.097716
  1O   2s         0.000009 -0.013001  0.000008  0.000018  0.627470  0.694410
  1O   3s        -0.000031  0.128319 -0.000000 -0.000082 -2.395749 -1.213630
  1O   1pz       -0.079164  0.151030  0.104927  0.042757 -0.018095  0.113255
  1O   1px       -0.004723 -0.126771  0.006270  0.002559  0.046109 -0.120074
  1O   1py       -0.073342 -0.154837  0.097219  0.039615  0.016556 -0.114495
  1O   2pz        0.119797 -0.383911 -0.365757 -0.383413 -0.239659 -0.547460
  1O   2px        0.007145  0.297633 -0.021868 -0.022885  0.923069  0.785227
  1O   2py        0.110999  0.395165 -0.338894 -0.355217  0.199147  0.540234
  1O   1dz2      -0.137311 -0.001226 -0.134017 -0.038479 -0.045317 -0.093637
  1O   1dxz       0.039049 -0.033773  0.013484 -0.189802 -0.035873  0.070632
  1O   1dyz       0.009291 -0.018032  0.010656  0.015550 -0.064170 -0.009429
  1O   1dx2y2    -0.074044  0.003619 -0.075210 -0.044742  0.072445  0.150288
  1O   1dxy       0.045513  0.034879  0.021697 -0.172460  0.025027 -0.096684
  2H   1s         0.000003 -0.297208  0.000004  0.000005  0.266615 -0.064615
  2H   2s         0.000006 -0.296672  0.000011 -0.000010 -0.213146 -0.014088
  2H   1pz        0.344080 -0.023900  0.476117  0.397563  0.068989  0.005200
  2H   1px        0.020564  0.070792  0.028456  0.023758 -0.242715 -0.851517
  2H   1py        0.318795  0.021268  0.441129  0.368342 -0.058825  0.049318
  3O   1s         0.000010 -0.249166  0.000004 -0.000001  0.000681 -0.000523
  3O   2s         0.000075 -1.762421  0.000031 -0.000012 -0.136120  0.086727
  3O   3s        -0.000178  3.930600 -0.000073  0.000062  1.090174 -0.804937
  3O   1pz       -0.112435  0.164069  0.012806  0.072036 -0.172466  0.100738
  3O   1px       -0.006715  0.040969  0.000766  0.004310  0.107673  0.056894
  3O   1py       -0.104164 -0.179740  0.011871  0.066754  0.179196 -0.112396
  3O   2pz        0.280577 -1.038919 -0.268110  0.036525 -0.058581  0.072119
  3O   2px        0.016753 -0.182155 -0.016021  0.002167 -0.436458 -0.140131
  3O   2py        0.259867  1.133115 -0.248439  0.033853  0.091379 -0.068805
  3O   1dz2       0.046523 -0.015629 -0.142560  0.154887 -0.011901  0.039173
  3O   1dxz      -0.025977  0.002495 -0.025726  0.055212  0.000913  0.023348
  3O   1dyz      -0.002329  0.073711  0.013921 -0.016884  0.023697  0.050580
  3O   1dx2y2     0.023561  0.038024 -0.084796  0.095386  0.024002 -0.062392
  3O   1dxy      -0.027178 -0.002476 -0.013888  0.040241 -0.002448 -0.013685
  4H   1s         0.000003  0.066501  0.000003  0.000001  0.043072  0.277689
  4H   2s         0.000025  0.142299 -0.000010 -0.000002  0.077756  0.214890
  4H   1pz        0.392003 -0.087810 -0.312746 -0.136195  0.534828 -0.196616
  4H   1px        0.023424  0.077194 -0.018686 -0.008159 -0.373856 -0.095058
  4H   1py        0.363188  0.089819 -0.289748 -0.126231 -0.553131  0.218350
                     36        37        38        39        40        41   
                   1.66243   1.82266   1.87970   2.05525   2.14585   2.38933
                   0.00000   0.00000   0.00000   0.00000   0.00000   0.00000
                  --------  --------  --------  --------  --------  --------
  0C   1s        -0.005330 -0.031222 -0.000001 -0.027323  0.027736  0.073075
  0C   2s        -0.030112  0.014523  0.000007  0.321711  0.001609 -0.517034
  0C   3s        -0.779935  0.933349 -0.000033  0.043426 -0.025500 -0.562963
  0C   1pz       -0.032077  0.105442  0.104167 -0.088336 -0.001907  0.120565
  0C   1px       -0.333021  0.113858  0.006217 -0.086108  0.186558  0.457146
  0C   1py        0.056105 -0.121154  0.096520  0.100897 -0.009972 -0.159615
  0C   2pz       -0.158235  0.297203  0.130908  0.323830  0.203701  0.037755
  0C   2px       -0.215142  0.491779  0.007822 -0.065459  0.043921  0.231595
  0C   2py        0.184656 -0.352490  0.121309 -0.345296 -0.222694 -0.055689
  0C   1dz2       0.237949 -0.148816 -0.219560 -0.063985 -0.174163  0.136799
  0C   1dxz      -0.228610 -0.342933 -0.560226 -0.109889 -0.237665 -0.150794
  0C   1dyz       0.218904 -0.796670  0.055039  0.230229  0.488767 -0.026507
  0C   1dx2y2    -0.345159  0.175397 -0.192824  0.159964  0.405990 -0.219725
  0C   1dxy       0.307801  0.293240 -0.501733  0.114475  0.239172  0.190043
  1O   1s        -0.031941 -0.042692  0.000001 -0.113012  0.002596 -0.025566
  1O   2s        -0.224855 -0.090007  0.000003 -0.598868 -0.008859 -0.157534
  1O   3s         0.503072 -0.486285  0.000007 -0.066343  0.517292  0.170220
  1O   1pz       -0.185264 -0.105525  0.026167  0.316479 -0.247977 -0.032483
  1O   1px        0.107951  0.278230  0.001560  0.128578  0.058711  0.055166
  1O   1py        0.192994  0.095951  0.024243 -0.349876  0.263860  0.031501
  1O   2pz        0.562460 -0.109579  0.044142  0.044568 -0.207992  0.117201
  1O   2px       -0.402818 -0.007275  0.002639 -0.069020 -0.001004 -0.131968
  1O   2py       -0.581085  0.118736  0.040895 -0.043651  0.224552 -0.117984
  1O   1dz2      -0.004214 -0.079764 -0.097495  0.071263  0.160120 -0.001773
  1O   1dxz       0.005040 -0.025978  0.073472 -0.020877 -0.137599  0.008507
  1O   1dyz       0.067562 -0.080517  0.003648 -0.193652  0.167521 -0.024424
  1O   1dx2y2     0.017132  0.127785 -0.047108 -0.149932 -0.231204 -0.001861
  1O   1dxy      -0.002958  0.005969  0.074525  0.028516  0.190810 -0.010691
  2H   1s         0.266948  0.032689 -0.000001  0.193714 -0.342641  0.052546
  2H   2s         0.125303 -0.029030  0.000000  0.406278 -0.207239  0.034476
  2H   1pz       -0.115879 -0.005127 -0.132949  0.713087 -0.344003  0.027782
  2H   1px        0.339937 -0.068284 -0.007946 -0.065201 -0.356918  0.050076
  2H   1py        0.103140  0.009935 -0.123175 -0.765440  0.394315 -0.033217
  3O   1s        -0.022771 -0.020189 -0.000001  0.060981  0.089220 -0.010030
  3O   2s        -0.196757  0.023857 -0.000008  0.399337  0.533729 -0.082307
  3O   3s         0.717069 -0.964981  0.000038 -0.673626 -0.547955  0.176941
  3O   1pz       -0.040038  0.192156  0.060444 -0.140509 -0.253328  0.018957
  3O   1px        0.150817  0.161731  0.003610  0.026541 -0.008035  0.048543
  3O   1py        0.033482 -0.217829  0.056007  0.149946  0.273946 -0.023592
  3O   2pz       -0.109241  0.120541 -0.049054  0.181277  0.183829 -0.041414
  3O   2px       -0.067368 -0.120333 -0.002932  0.030492  0.046592 -0.096982
  3O   2py        0.122261 -0.122353 -0.045435 -0.197627 -0.201419  0.050956
  3O   1dz2      -0.003425 -0.084102  0.162985 -0.025946 -0.081344  0.357945
  3O   1dxz       0.134570  0.127458 -0.137340  0.125159  0.134631  0.257323
  3O   1dyz       0.053610 -0.097665 -0.005158  0.014349  0.021988  0.445367
  3O   1dx2y2    -0.003057  0.112828  0.077009  0.030712  0.125847 -0.578430
  3O   1dxy      -0.141710 -0.159600 -0.137967 -0.138632 -0.160687 -0.172835
  4H   1s         0.281527  0.109412 -0.000002 -0.032929  0.096685  0.565838
  4H   2s        -0.292480  0.031579  0.000001 -0.056131  0.203073  0.397023
  4H   1pz       -0.129512 -0.173154 -0.601583 -0.219178 -0.225830  0.202771
  4H   1px       -0.493234  0.133894 -0.035964 -0.092640  0.418012  0.684468
  4H   1py        0.171616  0.178226 -0.557369  0.242541  0.216785 -0.263008
                     42        43        44        45        46        47   
                   2.40890   2.58318   2.59795   2.78094   2.81954   2.93399
                   0.00000   0.00000   0.00000   0.00000   0.00000   0.00000
                  --------  --------  --------  --------  --------  --------
  0C   1s        -0.000001  0.000006 -0.099761 -0.047660 -0.000001 -0.000001
  0C   2s         0.000003 -0.000042  0.624150  0.168497  0.000000  0.000002
  0C   3s         0.000007 -0.000044  0.776942  0.294628  0.000011  0.000013
  0C   1pz        0.058347  0.080187 -0.176242 -0.290094  0.059069  0.089162
  0C   1px        0.003481  0.004835 -0.782801  0.259353  0.003529  0.005331
  0C   1py        0.054059  0.074271  0.240719  0.296368  0.054745  0.082628
  0C   2pz        0.073989  0.131189 -0.054467 -0.519305  0.030676  0.060666
  0C   2px        0.004420  0.007878 -0.691792  0.336656  0.001836  0.003628
  0C   2py        0.068546  0.121546  0.103424  0.538782  0.028445  0.056234
  0C   1dz2      -0.048652 -0.024288 -0.364152  0.082101  0.012203  0.613542
  0C   1dxz      -0.073350  0.240412  0.150504  0.114260  0.309797 -0.024536
  0C   1dyz       0.008909 -0.013413 -0.247968 -0.391438 -0.021045 -0.051202
  0C   1dx2y2    -0.036652  0.014765  0.567453 -0.216830  0.044018  0.348764
  0C   1dxy      -0.064318  0.223513 -0.253937 -0.123135  0.284975 -0.065019
  1O   1s        -0.000000  0.000001 -0.003415  0.048699  0.000002  0.000000
  1O   2s        -0.000001  0.000006 -0.032060  0.478193  0.000012  0.000008
  1O   3s         0.000002 -0.000020  0.311434 -1.387966 -0.000027 -0.000037
  1O   1pz        0.030926  0.032657 -0.106555  0.074711  0.007800 -0.000196
  1O   1px        0.001850  0.001951  0.009091 -0.132167  0.000461 -0.000013
  1O   1py        0.028655  0.030246  0.114423 -0.072113  0.007221 -0.000185
  1O   2pz       -0.055740 -0.231097 -0.002937 -0.087592  0.036099  0.058933
  1O   2px       -0.003335 -0.013817  0.072716  0.785998  0.002174  0.003544
  1O   2py       -0.051646 -0.214115 -0.001549  0.043835  0.033448  0.054596
  1O   1dz2      -0.122802  0.300510  0.098580  0.387393 -0.828068  0.103061
  1O   1dxz       0.268917  0.589635 -0.171641 -0.014368  0.145222 -0.280033
  1O   1dyz      -0.006788 -0.063878 -0.057393  0.359135  0.061851  0.009214
  1O   1dx2y2    -0.038251  0.242749 -0.156151 -0.607504 -0.457330  0.025585
  1O   1dxy       0.256604  0.523249  0.202311  0.119384  0.191206 -0.265481
  2H   1s        -0.000001  0.000007 -0.164667  0.275181  0.000005  0.000014
  2H   2s         0.000002  0.000004 -0.052097 -0.068035 -0.000001 -0.000000
  2H   1pz       -0.019063  0.268006 -0.125330  0.103058 -0.328276 -0.011160
  2H   1px       -0.001140  0.016029 -0.175861 -0.226512 -0.019627 -0.000676
  2H   1py       -0.017660  0.248299  0.146650 -0.096605 -0.304155 -0.010351
  3O   1s         0.000000 -0.000002  0.010284 -0.067528 -0.000002 -0.000001
  3O   2s         0.000003 -0.000015  0.090281 -0.488653 -0.000013 -0.000010
  3O   3s        -0.000009  0.000024 -0.190162  0.891842  0.000024  0.000024
  3O   1pz        0.021280  0.032476 -0.013482  0.147386  0.003304 -0.000097
  3O   1px        0.001273  0.001945 -0.060987  0.050577  0.000198 -0.000005
  3O   1py        0.019714  0.030080  0.018489 -0.162343  0.003053 -0.000094
  3O   2pz       -0.044682 -0.101483  0.036255 -0.250308 -0.043692 -0.200559
  3O   2px       -0.002670 -0.006078  0.225828 -0.230779 -0.002616 -0.011988
  3O   2py       -0.041401 -0.094009 -0.053707  0.285066 -0.040464 -0.185800
  3O   1dz2      -0.001838  0.334320  0.266302 -0.035239  0.209425  0.794028
  3O   1dxz       0.668000 -0.181050 -0.115302  0.247202 -0.133998  0.139313
  3O   1dyz      -0.042928 -0.017092  0.161665 -0.185062 -0.009379 -0.077298
  3O   1dx2y2     0.078781  0.170029 -0.417349 -0.000198  0.104027  0.471803
  3O   1dxy       0.616446 -0.190154  0.190308 -0.280842 -0.138113  0.073683
  4H   1s        -0.000005  0.000059 -1.052670 -0.058275 -0.000009 -0.000006
  4H   2s        -0.000004  0.000034 -0.661902 -0.073839 -0.000007 -0.000008
  4H   1pz       -0.098823  0.040830 -0.349235  0.224560  0.112574  0.037047
  4H   1px       -0.005913  0.002494 -1.008482 -0.204987  0.006715  0.002206
  4H   1py       -0.091555  0.037780  0.441996 -0.229160  0.104292  0.034319
                     48        49        50        51   
                   3.06772   3.23778   3.36331   3.61065
                   0.00000   0.00000   0.00000   0.00000
                  --------  --------  --------  --------
  0C   1s         0.105774 -0.147318 -0.105910 -0.011558
  0C   2s        -0.754063  0.942131  0.878733  0.046420
  0C   3s        -0.524760  0.869957  0.484146  0.222989
  0C   1pz        0.050707  0.032019  0.598211 -0.054299
  0C   1px        0.099749  0.379267 -0.044239 -0.228906
  0C   1py       -0.061163 -0.059027 -0.642819  0.073371
  0C   2pz       -0.024266  0.000146  0.286053 -0.184028
  0C   2px       -0.472370  0.180720 -0.054176 -0.226045
  0C   2py        0.056661 -0.011815 -0.305251  0.213209
  0C   1dz2       0.291954 -0.127509  0.203100 -0.195246
  0C   1dxz      -0.390302 -0.451256  0.244139  0.309871
  0C   1dyz       0.040185 -0.319248 -0.542801  0.100765
  0C   1dx2y2    -0.445038  0.227240 -0.464960  0.311245
  0C   1dxy       0.483489  0.437337 -0.242320 -0.369126
  1O   1s        -0.055435 -0.027616  0.010005 -0.038631
  1O   2s        -0.296970  0.137021  0.016084 -0.080601
  1O   3s         0.019156 -1.358385  0.011046 -1.106496
  1O   1pz        0.094215  0.040733  0.033738  0.232852
  1O   1px        0.076221  0.123121 -0.053257 -0.021981
  1O   1py       -0.106606 -0.051905 -0.032979 -0.249902
  1O   2pz        0.595244 -0.105441  0.216481  0.711273
  1O   2px       -0.032518  0.516134 -0.025305  0.038369
  1O   2py       -0.640361  0.080510 -0.232020 -0.770169
  1O   1dz2       0.037391  0.135282  0.026855 -0.277871
  1O   1dxz      -0.393173  0.540841 -0.322681 -0.158818
  1O   1dyz       0.336308  0.564985 -0.062657  0.922439
  1O   1dx2y2     0.038806 -0.213793 -0.014406  0.641640
  1O   1dxy       0.444622 -0.518977  0.347217  0.153501
  2H   1s         0.749196  0.433521  0.188191  1.409261
  2H   2s         0.255560  0.043044  0.110447  0.280669
  2H   1pz        0.392577  0.213635  0.078431  0.662415
  2H   1px       -0.175241  0.173419 -0.169150  0.157169
  2H   1py       -0.412411 -0.241770 -0.073741 -0.725093
  3O   1s        -0.017685  0.016289 -0.019645  0.011854
  3O   2s        -0.178815  0.239756  0.165435  0.071063
  3O   3s         0.550044 -0.872492 -1.532123  0.102860
  3O   1pz        0.021828  0.005560  0.180088 -0.043889
  3O   1px        0.013524  0.023061  0.025461 -0.026848
  3O   1py       -0.024432 -0.007488 -0.196018  0.049103
  3O   2pz       -0.206471  0.325305  0.649766  0.017644
  3O   2px        0.245019  0.142974  0.068014 -0.127780
  3O   2py        0.207051 -0.360340 -0.705708 -0.010801
  3O   1dz2       0.095547  0.002728 -0.222204 -0.003865
  3O   1dxz      -0.427668 -0.297189 -0.069787  0.255315
  3O   1dyz      -0.268415  0.379643  0.941542  0.024113
  3O   1dx2y2    -0.151025  0.092782  0.537589 -0.022434
  3O   1dxy       0.464326  0.336630  0.071821 -0.272131
  4H   1s         0.530976 -0.042468 -0.015146 -0.445139
  4H   2s        -0.113045 -0.114192 -0.063992 -0.238876
  4H   1pz        0.069743 -0.107189  0.093597 -0.071925
  4H   1px        0.565305  0.048156 -0.072010 -0.334496
  4H   1py       -0.111739  0.112587 -0.096377  0.099206
--------------
SCF ITERATIONS
--------------
               ***  Starting incremental Fock matrix formation  ***

                         ----------------------------
                         !        ITERATION     0   !
                         ----------------------------
   Total Energy        :    -189.424880769988 Eh
   Energy Change       :    -189.424880769988 Eh
   MAX-DP              :       0.099889275129
   RMS-DP              :       0.006970234319
   Actual Damping      :       0.7000
   Actual Level Shift  :       0.2500 Eh
   Int. Num. El.       :    23.99997817 (UP=   11.99998909 DN=   11.99998909)
   Exchange            :   -22.83815355
   Correlation         :    -0.81200631


                         ----------------------------
                         !        ITERATION     1   !
                         ----------------------------
   Total Energy        :    -189.495260716418 Eh
   Energy Change       :      -0.070379946430 Eh
   MAX-DP              :       0.050403463873
   RMS-DP              :       0.003611822323
   Actual Damping      :       0.7000
   Actual Level Shift  :       0.2500 Eh
   Int. Num. El.       :    23.99997757 (UP=   11.99998878 DN=   11.99998878)
   Exchange            :   -22.58183262
   Correlation         :    -0.80952505

                               ***Turning on DIIS***

                         ----------------------------
                         !        ITERATION     2   !
                         ----------------------------
   Total Energy        :    -189.509914772968 Eh
   Energy Change       :      -0.014654056551 Eh
   MAX-DP              :       0.044882905873
   RMS-DP              :       0.003725092386
   Actual Damping      :       0.0000
   Actual Level Shift  :       0.2500 Eh
   Int. Num. El.       :    23.99997708 (UP=   11.99998854 DN=   11.99998854)
   Exchange            :   -22.45683184
   Correlation         :    -0.80797276
   DIIS-Error          :       0.032546965426


                         ----------------------------
                         !        ITERATION     3   !
                         ----------------------------
   Total Energy        :    -189.551721652969 Eh
   Energy Change       :      -0.041806880000 Eh
   MAX-DP              :       0.043191602725
   RMS-DP              :       0.002686902380
   Actual Damping      :       0.0000
   Actual Level Shift  :       0.2500 Eh
   Int. Num. El.       :    23.99997544 (UP=   11.99998772 DN=   11.99998772)
   Exchange            :   -22.37559927
   Correlation         :    -0.80571334
   DIIS-Error          :       0.050785574560
   DIIS coefficients:
      0.54170   0.45830


                         ----------------------------
                         !        ITERATION     4   !
                         ----------------------------
   Total Energy        :    -189.554164449964 Eh
   Energy Change       :      -0.002442796995 Eh
   MAX-DP              :       0.015703201197
   RMS-DP              :       0.000923214643
   Actual Damping      :       0.0000
   Actual Level Shift  :       0.2500 Eh
   Int. Num. El.       :    23.99997573 (UP=   11.99998786 DN=   11.99998786)
   Exchange            :   -22.46372585
   Correlation         :    -0.80688775
   DIIS-Error          :       0.037910269459
   DIIS coefficients:
      0.36576   0.19985   0.43439


                         ----------------------------
                         !        ITERATION     5   !
                         ----------------------------
   Total Energy        :    -189.555941238142 Eh
   Energy Change       :      -0.001776788178 Eh
   MAX-DP              :       0.002944133538
   RMS-DP              :       0.000245293898
   Actual Damping      :       0.0000
   Actual Level Shift  :       0.2500 Eh
   Int. Num. El.       :    23.99997577 (UP=   11.99998788 DN=   11.99998788)
   Exchange            :   -22.44628760
   Correlation         :    -0.80723603
   DIIS-Error          :       0.009191608053
   DIIS coefficients:
      0.10523   0.07774  -0.09442   0.91145

                      *** Initiating the SOSCF procedure ***
                           *** Shutting down DIIS ***
                      *** Re-Reading the Fockian *** 
                      *** Removing any level shift *** 

                         ----------------------------
                         !        ITERATION     6   !
                         ----------------------------
   Total Energy        :    -189.556058098331 Eh
   Energy Change       :      -0.000116860189 Eh
   MAX-DP              :       0.001429969902
   RMS-DP              :       0.000099642411
   Orbital gradient    :       0.000798855801
   Orbital Rotation    :       0.000798855801
   Actual Damping      :       0.0000
   Int. Num. El.       :    23.99997582 (UP=   11.99998791 DN=   11.99998791)
   Exchange            :   -22.44414717
   Correlation         :    -0.80730822

               *** Restarting incremental Fock matrix formation ***

                         ----------------------------
                         !        ITERATION     7   !
                         ----------------------------
   Total Energy        :    -189.556072768754 Eh
   Energy Change       :      -0.000014670423 Eh
   MAX-DP              :       0.001120836565
   RMS-DP              :       0.000075972915
   Orbital gradient    :       0.000395784196
   Orbital Rotation    :       0.001120064226
   Actual Damping      :       0.0000
   Int. Num. El.       :    23.99997583 (UP=   11.99998792 DN=   11.99998792)
   Exchange            :   -22.44231245
   Correlation         :    -0.80730760


                         ----------------------------
                         !        ITERATION     8   !
                         ----------------------------
   Total Energy        :    -189.556071005143 Eh
   Energy Change       :       0.000001763612 Eh
   MAX-DP              :       0.000681016378
   RMS-DP              :       0.000044388081
   Orbital gradient    :       0.000712597553
   Orbital Rotation    :       0.000663517727
   Actual Damping      :       0.0000
   Int. Num. El.       :    23.99997582 (UP=   11.99998791 DN=   11.99998791)
   Exchange            :   -22.44089065
   Correlation         :    -0.80731724


                         ----------------------------
                         !        ITERATION     9   !
                         ----------------------------
   Total Energy        :    -189.556074052634 Eh
   Energy Change       :      -0.000003047491 Eh
   MAX-DP              :       0.000187305120
   RMS-DP              :       0.000012052664
   Orbital gradient    :       0.000056000019
   Orbital Rotation    :       0.000124595654
   Actual Damping      :       0.0000
   Int. Num. El.       :    23.99997583 (UP=   11.99998791 DN=   11.99998791)
   Exchange            :   -22.44214453
   Correlation         :    -0.80731756


                         ----------------------------
                         !        ITERATION    10   !
                         ----------------------------
   Total Energy        :    -189.556074067408 Eh
   Energy Change       :      -0.000000014774 Eh
   MAX-DP              :       0.000082652339
   RMS-DP              :       0.000005081331
   Orbital gradient    :       0.000048869417
   Orbital Rotation    :       0.000054017283
   Actual Damping      :       0.0000
   Int. Num. El.       :    23.99997582 (UP=   11.99998791 DN=   11.99998791)
   Exchange            :   -22.44184101
   Correlation         :    -0.80731202


                         ----------------------------
                         !        ITERATION    11   !
                         ----------------------------
   Total Energy        :    -189.556074074128 Eh
   Energy Change       :      -0.000000006720 Eh
   MAX-DP              :       0.000055054049
   RMS-DP              :       0.000005188143
   Orbital gradient    :       0.000046016463
   Orbital Rotation    :       0.000111257497
   Actual Damping      :       0.0000
   Int. Num. El.       :    23.99997582 (UP=   11.99998791 DN=   11.99998791)
   Exchange            :   -22.44198190
   Correlation         :    -0.80731494


                         ----------------------------
                         !        ITERATION    12   !
                         ----------------------------
   Total Energy        :    -189.556074072473 Eh
   Energy Change       :       0.000000001655 Eh
   MAX-DP              :       0.000054161535
   RMS-DP              :       0.000003541374
   Orbital gradient    :       0.000035357752
   Orbital Rotation    :       0.000043188221
   Actual Damping      :       0.0000
   Int. Num. El.       :    23.99997583 (UP=   11.99998791 DN=   11.99998791)
   Exchange            :   -22.44205441
   Correlation         :    -0.80731712


                         ----------------------------
                         !        ITERATION    13   !
                         ----------------------------
   Total Energy        :    -189.556074081811 Eh
   Energy Change       :      -0.000000009338 Eh
   MAX-DP              :       0.000016362201
   RMS-DP              :       0.000001059434
   Orbital gradient    :       0.000005448905
   Orbital Rotation    :       0.000015567566
   Actual Damping      :       0.0000
   Int. Num. El.       :    23.99997582 (UP=   11.99998791 DN=   11.99998791)
   Exchange            :   -22.44196121
   Correlation         :    -0.80731433


                         ----------------------------
                         !        ITERATION    14   !
                         ----------------------------
   Total Energy        :    -189.556074082529 Eh
   Energy Change       :      -0.000000000718 Eh
   MAX-DP              :       0.000005912531
   RMS-DP              :       0.000000455191
   Orbital gradient    :       0.000003285559
   Orbital Rotation    :       0.000007534605
   Actual Damping      :       0.0000
   Int. Num. El.       :    23.99997582 (UP=   11.99998791 DN=   11.99998791)
   Exchange            :   -22.44197568
   Correlation         :    -0.80731504

                 **** Energy Check signals convergence ****
              ***Rediagonalizing the Fockian in SOSCF/NRSCF***

               *****************************************************
               *                     SUCCESS                       *
               *           SCF CONVERGED AFTER  15 CYCLES          *
               *****************************************************

Setting up the final grid:

General Integration Accuracy     IntAcc      ...  5.010
Radial Grid Type                 RadialGrid  ... Gauss-Chebyshev
Angular Grid (max. acc.)         AngularGrid ... Lebedev-434
Angular grid pruning method      GridPruning ... 3 (G Style)
Weight generation scheme         WeightScheme... Becke
Basis function cutoff            BFCut       ...    1.0000e-11
Integration weight cutoff        WCut        ...    1.0000e-14
Grids for H and He will be reduced by one unit

# of grid points (after initial pruning)     ...  45766 (   0.0 sec)
# of grid points (after weights+screening)   ...  44739 (   0.0 sec)
nearest neighbour list constructed           ...    0.0 sec
Grid point re-assignment to atoms done       ...    0.0 sec
Grid point division into batches done        ...    0.4 sec
Reduced shell lists constructed in    0.4 sec

Total number of grid points                  ...    44739
Total number of batches                      ...      702
Average number of points per batch           ...       63
Average number of grid points per atom       ...     8948
Average number of shells per batch           ...    22.27 (92.79%)
Average number of basis functions per batch  ...    49.60 (95.38%)
Average number of large shells per batch     ...    21.36 (95.91%)
Average number of large basis fcns per batch ...    48.01 (96.81%)
Maximum spatial batch extension              ...   3.29, 10.59, 11.91 au
Average spatial batch extension              ...   0.13,  0.15,  0.15 au

Final grid set up in    0.4 sec
Final integration                            ... done (   0.0 sec)
Change in XC energy                          ...     0.000011165
Integrated number of electrons               ...    23.999999140
Previous integrated no of electrons          ...    23.999975824

----------------
TOTAL SCF ENERGY
----------------

Total Energy       :         -189.55606292 Eh           -5158.08270 eV

Components:
Nuclear Repulsion  :           69.51878193 Eh            1891.70223 eV
Electronic Energy  :         -259.07484485 Eh           -7049.78493 eV
One Electron Energy:         -396.90304598 Eh          -10800.28096 eV
Two Electron Energy:          137.82820113 Eh            3750.49602 eV

Virial components:
Potential Energy   :         -377.66151241 Eh          -10276.69221 eV
Kinetic Energy     :          188.10544949 Eh            5118.60951 eV
Virial Ratio       :            2.00771170


DFT components:
N(Alpha)           :       11.999999569891 electrons
N(Beta)            :       11.999999569891 electrons
N(Total)           :       23.999999139781 electrons
E(X)               :      -22.441980681474 Eh       
E(C)               :       -0.807298541729 Eh       
E(XC)              :      -23.249279223204 Eh       
DFET-embed. en.    :        0.000000000000 Eh       

---------------
SCF CONVERGENCE
---------------

  Last Energy change         ...   -1.4248e-10  Tolerance :   1.0000e-08
  Last MAX-Density change    ...    4.6414e-07  Tolerance :   1.0000e-07
  Last RMS-Density change    ...    3.6448e-08  Tolerance :   5.0000e-09
  Last Orbital Gradient      ...    2.7715e-07  Tolerance :   1.0000e-05
  Last Orbital Rotation      ...    1.8264e-07  Tolerance :   1.0000e-05

             **** THE GBW FILE WAS UPDATED (opt.gbw) ****
             **** DENSITY FILE WAS UPDATED (opt.scfp) ****
             **** ENERGY FILE WAS UPDATED (opt.en.tmp) ****
             **** THE GBW FILE WAS UPDATED (opt.gbw) ****
             **** DENSITY FILE WAS UPDATED (opt.scfp) ****
----------------
ORBITAL ENERGIES
----------------

  NO   OCC          E(Eh)            E(eV) 
   0   2.0000     -18.824045      -512.2283 
   1   2.0000     -18.756447      -510.3889 
   2   2.0000     -10.032138      -272.9884 
   3   2.0000      -1.000581       -27.2272 
   4   2.0000      -0.916865       -24.9492 
   5   2.0000      -0.590485       -16.0679 
   6   2.0000      -0.519251       -14.1295 
   7   2.0000      -0.390728       -10.6323 
   8   2.0000      -0.383653       -10.4397 
   9   2.0000      -0.330402        -8.9907 
  10   2.0000      -0.276668        -7.5285 
  11   2.0000      -0.227112        -6.1800 
  12   0.0000      -0.037536        -1.0214 
  13   0.0000       0.010514         0.2861 
  14   0.0000       0.071882         1.9560 
  15   0.0000       0.216019         5.8782 
  16   0.0000       0.226371         6.1599 
  17   0.0000       0.372791        10.1442 
  18   0.0000       0.429402        11.6846 
  19   0.0000       0.488719        13.2987 
  20   0.0000       0.565663        15.3925 
  21   0.0000       0.584961        15.9176 
  22   0.0000       0.588056        16.0018 
  23   0.0000       0.857380        23.3305 
  24   0.0000       0.876428        23.8488 
  25   0.0000       0.894716        24.3465 
  26   0.0000       0.963069        26.2065 
  27   0.0000       1.056632        28.7524 
  28   0.0000       1.160784        31.5865 
  29   0.0000       1.200619        32.6705 
  30   0.0000       1.201763        32.7016 
  31   0.0000       1.296071        35.2679 
  32   0.0000       1.376218        37.4488 
  33   0.0000       1.562044        42.5054 
  34   0.0000       1.583897        43.1000 
  35   0.0000       1.607436        43.7405 
  36   0.0000       1.720452        46.8159 
[...]
   4  :   -0.000149357   -0.000355818    0.000338559
   5  :   -0.000158403    0.000008423    0.000001659

  |G| =    0.002106054


The revPBE functional is recognized
Active option DFTDOPT                   ...         5   



------------------- 
Dispersion Gradient 
------------------- 
   1  :   -0.000036012   -0.000010159    0.000011544
   2  :    0.000236224    0.000281291   -0.000274706
   3  :    0.000116898    0.000063181   -0.000065515
   4  :   -0.000149020   -0.000355799    0.000338536
   5  :   -0.000158641    0.000008557    0.000001558

  |G| =    0.002107640


The revPBE functional is recognized
Active option DFTDOPT                   ...         5   



------------------- 
Dispersion Gradient 
------------------- 
   1  :   -0.000035406   -0.000009994    0.000011369
   2  :    0.000236127    0.000281587   -0.000274848
   3  :    0.000116665    0.000063160   -0.000065449
   4  :   -0.000149247   -0.000355969    0.000338610
   5  :   -0.000158523    0.000008484    0.000001507

  |G| =    0.002106944


The revPBE functional is recognized
Active option DFTDOPT                   ...         5   



------------------- 
Dispersion Gradient 
------------------- 
   1  :   -0.000035472   -0.000010346    0.000011716
   2  :    0.000236118    0.000280978   -0.000274551
   3  :    0.000116929    0.000063126   -0.000065499
   4  :   -0.000149131   -0.000355648    0.000338484
   5  :   -0.000158532    0.000008500    0.000001705

  |G| =    0.002106734


Dispersion correction Hessian from Numerical Differentiation: 
                  0          1          2          3          4          5    
      0       0.000115   0.000000   0.000000   0.000000   0.000000   0.000000
      1       0.000000   0.000000   0.000000   0.000000   0.000000   0.000000
      2       0.000000   0.000000   0.000000   0.000000   0.000000   0.000000
      3       0.000000   0.000000   0.000000   0.000000   0.000000   0.000000
      4       0.000000   0.000000   0.000000   0.000000   0.000000   0.000000
      5       0.000000   0.000000   0.000000   0.000000   0.000000   0.000000
      6       0.000000   0.000000   0.000000   0.000000   0.000000   0.000000
      7       0.000000   0.000000   0.000000   0.000000   0.000000   0.000000
      8       0.000007   0.000035  -0.000035   0.000001   0.000061  -0.000030
      9       0.000000   0.000000   0.000000   0.000000   0.000000   0.000000
     10       0.000000   0.000000   0.000000   0.000000   0.000000   0.000000
     11       0.000000   0.000000   0.000000   0.000000   0.000000   0.000000
     12       0.000000   0.000000   0.000000   0.000000   0.000000   0.000000
     13       0.000000   0.000000   0.000000   0.000000   0.000000   0.000000
     14       0.000000   0.000000   0.000000   0.000000   0.000000   0.000000
                  6          7          8          9         10         11    
      0       0.000000   0.000000   0.000007   0.000000   0.000000   0.000000
      1       0.000000   0.000000   0.000035   0.000000   0.000000   0.000000
      2       0.000000   0.000000  -0.000035   0.000000   0.000000   0.000000
      3       0.000000   0.000000   0.000001   0.000000   0.000000   0.000000
      4       0.000000   0.000000   0.000061   0.000000   0.000000   0.000000
      5       0.000000   0.000000  -0.000030   0.000000   0.000000   0.000000
      6       0.000000   0.000000  -0.000026   0.000000   0.000000   0.000000
      7       0.000000   0.000000   0.000003   0.000000   0.000000   0.000000
      8      -0.000026   0.000003   0.000005   0.000000   0.000000   0.000000
      9       0.000000   0.000000   0.000000   0.000000   0.000000   0.000000
     10       0.000000   0.000000   0.000000   0.000000   0.000000   0.000000
     11       0.000000   0.000000   0.000000   0.000000   0.000000   0.000000
     12       0.000000   0.000000   0.000000   0.000000   0.000000   0.000000
     13       0.000000   0.000000   0.000000   0.000000   0.000000   0.000000
     14       0.000000   0.000000   0.000000   0.000000   0.000000   0.000000
                  12         13         14    
      0       0.000000   0.000000   0.000000
      1       0.000000   0.000000   0.000000
      2       0.000000   0.000000   0.000000
      3       0.000000   0.000000   0.000000
      4       0.000000   0.000000   0.000000
      5       0.000000   0.000000   0.000000
      6       0.000000   0.000000   0.000000
      7       0.000000   0.000000   0.000000
      8       0.000000   0.000000   0.000000
      9       0.000000   0.000000   0.000000
     10       0.000000   0.000000   0.000000
     11       0.000000   0.000000   0.000000
     12       0.000000   0.000000   0.000000
     13       0.000000   0.000000   0.000000
     14       0.000000   0.000000   0.000000

done   (      0.2 sec)
gCP correction in the Hessian                    ...  
-----------------
gCP hessian 
from Numerical Differentiation: 
-----------------
                  0          1          2          3          4          5    
      0      -0.000039  -0.000024   0.000011   0.000009  -0.000015   0.000016
      1      -0.000024  -0.000117  -0.000106  -0.000015   0.000031   0.000008
      2       0.000011  -0.000106  -0.000136   0.000016   0.000008   0.000030
      3       0.000009  -0.000015   0.000016  -0.000070  -0.000006  -0.000004
      4      -0.000015   0.000031   0.000008  -0.000006  -0.000166  -0.000059
      5       0.000016   0.000008   0.000030  -0.000004  -0.000059  -0.000175
      6       0.000015  -0.000031   0.000030   0.000122   0.000025  -0.000023
      7      -0.000031  -0.000014   0.000047   0.000025   0.000074   0.000053
      8       0.000030   0.000047  -0.000011  -0.000023   0.000053   0.000085
      9       0.000044   0.000002  -0.000002   0.000022   0.000002  -0.000002
     10       0.000002   0.000016   0.000026   0.000002   0.000024  -0.000003
     11      -0.000002   0.000026   0.000020  -0.000002  -0.000003   0.000023
     12      -0.000029   0.000068  -0.000054  -0.000084  -0.000006   0.000013
     13       0.000068   0.000085   0.000025  -0.000006   0.000037   0.000001
     14      -0.000054   0.000025   0.000097   0.000013   0.000001   0.000036
                  6          7          8          9         10         11    
      0       0.000015  -0.000031   0.000030   0.000044   0.000002  -0.000002
      1      -0.000031  -0.000014   0.000047   0.000002   0.000016   0.000026
      2       0.000030   0.000047  -0.000011  -0.000002   0.000026   0.000020
      3       0.000122   0.000025  -0.000023   0.000022   0.000002  -0.000002
      4       0.000025   0.000074   0.000053   0.000002   0.000024  -0.000003
      5      -0.000023   0.000053   0.000085  -0.000002  -0.000003   0.000023
      6      -0.000064   0.000064  -0.000068   0.000003  -0.000007   0.000007
      7       0.000064  -0.000060  -0.000143  -0.000007  -0.000014   0.000019
      8      -0.000068  -0.000143  -0.000074   0.000007   0.000019  -0.000012
      9       0.000003  -0.000007   0.000007  -0.000076  -0.000038   0.000033
     10      -0.000007  -0.000014   0.000019  -0.000038  -0.000011  -0.000088
     11       0.000007   0.000019  -0.000012   0.000033  -0.000088  -0.000029
     12      -0.000077  -0.000051   0.000054   0.000007   0.000041  -0.000036
     13      -0.000051   0.000014   0.000025   0.000041  -0.000014   0.000046
     14       0.000054   0.000025   0.000011  -0.000036   0.000046  -0.000002
                  12         13         14    
      0      -0.000029   0.000068  -0.000054
      1       0.000068   0.000085   0.000025
      2      -0.000054   0.000025   0.000097
      3      -0.000084  -0.000006   0.000013
      4      -0.000006   0.000037   0.000001
      5       0.000013   0.000001   0.000036
      6      -0.000077  -0.000051   0.000054
      7      -0.000051   0.000014   0.000025
      8       0.000054   0.000025   0.000011
      9       0.000007   0.000041  -0.000036
     10       0.000041  -0.000014   0.000046
     11      -0.000036   0.000046  -0.000002
     12       0.000183  -0.000051   0.000022
     13      -0.000051  -0.000123  -0.000096
     14       0.000022  -0.000096  -0.000142

done   (      0.1 sec)
Dipol derivatives                                ... done   (      0.1 sec)

-------
TIMINGS
-------

Total SCF Hessian time: 0 days 0 hours 0 min 5 sec 
                   F(y)            G[Q(x)]           CPSCF         Total
Table01         0.2  0.04         0.2  0.04         2.4  0.41         5.7 
Table01a        0.2  0.04,        0.2, 0.04,        2.4  0.41         5.7 
Table01b        0.2   3.8,        0.2,  3.7,        2.4  41.5         5.7 

Writing the Hessian file to the disk             ... done


Maximum memory used throughout the entire calculation: 131.9 MB

-----------------------
VIBRATIONAL FREQUENCIES
-----------------------

Scaling factor for frequencies =  1.000000000  (already applied!)

   0:         0.00 cm**-1
   1:         0.00 cm**-1
   2:         0.00 cm**-1
   3:         0.00 cm**-1
   4:         0.00 cm**-1
   5:         0.00 cm**-1
   6:       541.43 cm**-1
   7:       644.25 cm**-1
   8:       993.10 cm**-1
   9:      1084.22 cm**-1
  10:      1233.49 cm**-1
  11:      1377.43 cm**-1
  12:      1850.68 cm**-1
  13:      2831.31 cm**-1
  14:      3654.97 cm**-1


------------
NORMAL MODES
------------

These modes are the Cartesian displacements weighted by the diagonal matrix
M(i,i)=1/sqrt(m[i]) where m[i] is the mass of the displaced atom
Thus, these vectors are normalized but *not* orthogonal

                  0          1          2          3          4          5    
      0       0.000000   0.000000   0.000000   0.000000   0.000000   0.000000
      1       0.000000   0.000000   0.000000   0.000000   0.000000   0.000000
      2       0.000000   0.000000   0.000000   0.000000   0.000000   0.000000
      3       0.000000   0.000000   0.000000   0.000000   0.000000   0.000000
      4       0.000000   0.000000   0.000000   0.000000   0.000000   0.000000
      5       0.000000   0.000000   0.000000   0.000000   0.000000   0.000000
      6       0.000000   0.000000   0.000000   0.000000   0.000000   0.000000
      7       0.000000   0.000000   0.000000   0.000000   0.000000   0.000000
      8       0.000000   0.000000   0.000000   0.000000   0.000000   0.000000
      9       0.000000   0.000000   0.000000   0.000000   0.000000   0.000000
     10       0.000000   0.000000   0.000000   0.000000   0.000000   0.000000
     11       0.000000   0.000000   0.000000   0.000000   0.000000   0.000000
     12       0.000000   0.000000   0.000000   0.000000   0.000000   0.000000
     13       0.000000   0.000000   0.000000   0.000000   0.000000   0.000000
     14       0.000000   0.000000   0.000000   0.000000   0.000000   0.000000
                  6          7          8          9         10         11    
      0       0.002355  -0.294183   0.010130  -0.209953  -0.181676   0.071349
      1       0.037230   0.127255   0.157274  -0.033508  -0.015066   0.009518
      2       0.040200  -0.100195   0.169796   0.043552   0.024751  -0.013059
      3       0.002525  -0.097957  -0.002148   0.126391   0.168432   0.014517
      4       0.038800  -0.248119  -0.033816   0.093278  -0.000571  -0.018151
      5       0.041845   0.235673  -0.036567  -0.093990  -0.009521   0.015947
      6      -0.042915   0.706344  -0.000228   0.780697  -0.902351  -0.073354
      7      -0.667460  -0.083486  -0.001467   0.227697  -0.200864  -0.033495
      8      -0.720275   0.035263  -0.001584  -0.257203   0.240119   0.035402
      9      -0.002025   0.295246  -0.002774   0.002143   0.034002  -0.035536
     10      -0.031518   0.153526  -0.042693  -0.069928   0.022211   0.053184
     11      -0.034009  -0.159896  -0.046038   0.064677  -0.022589  -0.047155
     12       0.006924  -0.332321  -0.042363  -0.319049  -0.145894  -0.443201
     13       0.108263   0.068542  -0.658197  -0.199037   0.036922  -0.635965
     14       0.116903  -0.044108  -0.710545   0.203513  -0.025385   0.615552
                  12         13         14    
      0       0.014744   0.070807   0.002590
      1       0.473696  -0.037548  -0.001874
      2      -0.439726   0.030560   0.001582
      3       0.012474   0.000707   0.016757
      4      -0.034130   0.000941  -0.044316
      5       0.030882  -0.000915   0.040069
      6      -0.339171   0.015944  -0.289573
      7      -0.081091  -0.000604   0.709102
      8       0.095358  -0.000392  -0.639867
      9       0.029800  -0.000445  -0.000488
     10      -0.312892   0.002799   0.000806
     11       0.288086  -0.002567  -0.000717
     12      -0.507491  -0.863806   0.000472
     13      -0.055366   0.388639   0.003826
     14       0.081613  -0.308495  -0.003575


-----------
IR SPECTRUM
-----------

 Mode    freq (cm**-1)   T**2         TX         TY         TZ
-------------------------------------------------------------------
   6:       541.43   79.145654  ( -0.391299  -6.042432  -6.517788)
   7:       644.25    9.042055  ( -0.585732   2.181265  -1.985209)
   8:       993.10    0.359518  (  0.024731   0.405677   0.440831)
   9:      1084.22   21.729124  ( -4.452096  -0.869325   1.073424)
  10:      1233.49  294.707405  (-13.719403  -7.147723   7.442811)
  11:      1377.43    0.532399  (  0.728680  -0.036345  -0.010197)
  12:      1850.68  244.663847  (  2.610369  11.235388 -10.564841)
  13:      2831.31  114.159060  (  9.160857  -4.295941   3.432586)
  14:      3654.97   33.738421  ( -0.242734   4.263670  -3.937083)

The first frequency considered to be a vibration is 6
The total number of vibrations considered is 9


--------------------------
THERMOCHEMISTRY AT 298.15K
--------------------------

Temperature         ... 298.15 K
Pressure            ... 1.00 atm
Total Mass          ... 46.02 AMU

Throughout the following assumptions are being made:
  (1) The electronic state is orbitally nondegenerate
  (2) There are no thermally accessible electronically excited states
  (3) Hindered rotations indicated by low frequency modes are not
      treated as such but are treated as vibrations and this may
      cause some error
  (4) All equations used are the standard statistical mechanics
      equations for an ideal gas
  (5) All vibrations are strictly harmonic

freq.     541.43  E(vib)   ...       0.12 
freq.     644.25  E(vib)   ...       0.09 
freq.     993.10  E(vib)   ...       0.02 
freq.    1084.22  E(vib)   ...       0.02 
freq.    1233.49  E(vib)   ...       0.01 
freq.    1377.43  E(vib)   ...       0.01 
freq.    1850.68  E(vib)   ...       0.00 
freq.    2831.31  E(vib)   ...       0.00 
freq.    3654.97  E(vib)   ...       0.00 

------------
INNER ENERGY
------------

The inner energy is: U= E(el) + E(ZPE) + E(vib) + E(rot) + E(trans)
    E(el)   - is the total energy from the electronic structure calculation
              = E(kin-el) + E(nuc-el) + E(el-el) + E(nuc-nuc)
    E(ZPE)  - the the zero temperature vibrational energy from the frequency calculation
    E(vib)  - the the finite temperature correction to E(ZPE) due to population
              of excited vibrational states
    E(rot)  - is the rotational thermal energy
    E(trans)- is the translational thermal energy

Summary of contributions to the inner energy U:
Electronic energy                ...   -189.56582103 Eh
Zero point energy                ...      0.03237478 Eh      20.32 kcal/mol
Thermal vibrational correction   ...      0.00042074 Eh       0.26 kcal/mol
Thermal rotational correction    ...      0.00141627 Eh       0.89 kcal/mol
Thermal translational correction ...      0.00141627 Eh       0.89 kcal/mol
-----------------------------------------------------------------------
Total thermal energy                   -189.53019296 Eh


Summary of corrections to the electronic energy:
(perhaps to be used in another calculation)
Total thermal correction                  0.00325329 Eh       2.04 kcal/mol
Non-thermal (ZPE) correction              0.03237478 Eh      20.32 kcal/mol
-----------------------------------------------------------------------
Total correction                          0.03562807 Eh      22.36 kcal/mol


--------
ENTHALPY
--------

The enthalpy is H = U + kB*T
                kB is Boltzmann's constant
Total free energy                 ...   -189.53019296 Eh 
Thermal Enthalpy correction       ...      0.00094421 Eh       0.59 kcal/mol
-----------------------------------------------------------------------
Total Enthalpy                    ...   -189.52924876 Eh


Note: Only C1 symmetry has been detected, increase convergence thresholds 
      if your molecule has a higher symmetry. Symmetry factor of 1.0 is   
      used for the rotational entropy correction. 
 

Note: Rotational entropy computed according to Herzberg 
Infrared and Raman Spectra, Chapter V,1, Van Nostrand Reinhold, 1945 
Point Group:  C1, Symmetry Number:   1  
Rotational constants in cm-1:     2.841832     0.382285     0.336957 

Vibrational entropy computed according to the QRRHO of S. Grimme
Chem.Eur.J. 2012 18 9955


-------
ENTROPY
-------

The entropy contributions are T*S = T*(S(el)+S(vib)+S(rot)+S(trans))
     S(el)   - electronic entropy
     S(vib)  - vibrational entropy
     S(rot)  - rotational entropy
     S(trans)- translational entropy
The entropies will be listed as mutliplied by the temperature to get
units of energy

Electronic entropy                ...      0.00000000 Eh      0.00 kcal/mol
Vibrational entropy               ...      0.00055306 Eh      0.35 kcal/mol
Rotational entropy                ...      0.00998523 Eh      6.27 kcal/mol
Translational entropy             ...      0.01777224 Eh     11.15 kcal/mol
-----------------------------------------------------------------------
Final entropy term                ...      0.02831053 Eh     17.77 kcal/mol

In case the symmetry of your molecule has not been determined correctly
or in case you have a reason to use a different symmetry number we print 
out the resulting rotational entropy values for sn=1,12 :
 --------------------------------------------------------
|  sn= 1 | S(rot)=       0.00998523 Eh      6.27 kcal/mol|
|  sn= 2 | S(rot)=       0.00933078 Eh      5.86 kcal/mol|
|  sn= 3 | S(rot)=       0.00894794 Eh      5.61 kcal/mol|
|  sn= 4 | S(rot)=       0.00867632 Eh      5.44 kcal/mol|
|  sn= 5 | S(rot)=       0.00846563 Eh      5.31 kcal/mol|
|  sn= 6 | S(rot)=       0.00829349 Eh      5.20 kcal/mol|
|  sn= 7 | S(rot)=       0.00814794 Eh      5.11 kcal/mol|
|  sn= 8 | S(rot)=       0.00802186 Eh      5.03 kcal/mol|
|  sn= 9 | S(rot)=       0.00791066 Eh      4.96 kcal/mol|
|  sn=10 | S(rot)=       0.00781118 Eh      4.90 kcal/mol|
|  sn=11 | S(rot)=       0.00772119 Eh      4.85 kcal/mol|
|  sn=12 | S(rot)=       0.00763903 Eh      4.79 kcal/mol|
 --------------------------------------------------------


-------------------
GIBBS FREE ENERGY
-------------------

The Gibbs free energy is G = H - T*S

Total enthalpy                    ...   -189.52924876 Eh 
Total entropy correction          ...     -0.02831053 Eh    -17.77 kcal/mol
-----------------------------------------------------------------------
Final Gibbs free energy         ...   -189.55755929 Eh

For completeness - the Gibbs free energy minus the electronic energy
G-E(el)                           ...      0.00826175 Eh      5.18 kcal/mol


Timings for individual modules:

Sum of individual times         ...       34.731 sec (=   0.579 min)
GTO integral calculation        ...        3.440 sec (=   0.057 min)   9.9 %
SCF iterations                  ...       19.374 sec (=   0.323 min)  55.8 %
SCF Gradient evaluation         ...        5.755 sec (=   0.096 min)  16.6 %
Geometry relaxation             ...        0.166 sec (=   0.003 min)   0.5 %
Analytical frequency calculation...        5.996 sec (=   0.100 min)  17.3 %
                             ****ORCA TERMINATED NORMALLY****
TOTAL RUN TIME: 0 days 0 hours 0 minutes 35 seconds 563 msec
