
                                 *****************
                                 * O   R   C   A *
                                 *****************

           --- An Ab Initio, DFT and Semiempirical electronic structure package ---

                  #######################################################
                  #                        -***-                        #
                  #          Department of theory and spectroscopy      #
                  #               Directorship: Frank Neese             #
                  #        Max Planck Institute fuer Kohlenforschung    #
                  #                Kaiser Wilhelm Platz 1               #
                  #                 D-45470 Muelheim/Ruhr               #
                  #                      Germany                        #
                  #                                                     #
                  #                  All rights reserved                #
                  #                        -***-                        #
                  #######################################################


                         Program Version 4.2.1 -  RELEASE  -


 With contributions from (in alphabetic order):
   Daniel Aravena         : Magnetic Suceptibility
   Michael Atanasov       : Ab Initio Ligand Field Theory (pilot matlab implementation)
   Alexander A. Auer      : GIAO ZORA, VPT2
   Ute Becker             : Parallelization
   Giovanni Bistoni       : ED, misc. LED, open-shell LED, HFLD
   Martin Brehm           : Molecular dynamics
   Dmytro Bykov           : SCF Hessian
   Vijay G. Chilkuri      : MRCI spin determinant printing, contributions to CSF-ICE
   Dipayan Datta          : RHF DLPNO-CCSD density
   Achintya Kumar Dutta   : EOM-CC, STEOM-CC
   Dmitry Ganyushin       : Spin-Orbit,Spin-Spin,Magnetic field MRCI
   Miquel Garcia          : C-PCM Hessian, Gaussian charge scheme
   Yang Guo               : DLPNO-NEVPT2, CIM, IAO-localization
   Andreas Hansen         : Spin unrestricted coupled pair/coupled cluster methods
   Benjamin Helmich-Paris : CASSCF linear response (MC-RPA)
   Lee Huntington         : MR-EOM, pCC
   Robert Izsak           : Overlap fitted RIJCOSX, COSX-SCS-MP3, EOM
   Christian Kollmar      : KDIIS, OOCD, Brueckner-CCSD(T), CCSD density
   Simone Kossmann        : Meta GGA functionals, TD-DFT gradient, OOMP2, MP2 Hessian
   Martin Krupicka        : AUTO-CI
   Lucas Lang             : DCDCAS
   Dagmar Lenk            : GEPOL surface, SMD
   Dimitrios Liakos       : Extrapolation schemes; Compound Job, initial MDCI parallelization
   Dimitrios Manganas     : Further ROCIS development; embedding schemes
   Dimitrios Pantazis     : SARC Basis sets
   Taras Petrenko         : DFT Hessian,TD-DFT gradient, ASA, ECA, R-Raman, ABS, FL, XAS/XES, NRVS
   Peter Pinski           : DLPNO-MP2, DLPNO-MP2 Gradient
   Christoph Reimann      : Effective Core Potentials
   Marius Retegan         : Local ZFS, SOC
   Christoph Riplinger    : Optimizer, TS searches, QM/MM, DLPNO-CCSD(T), (RO)-DLPNO pert. Triples
   Tobias Risthaus        : Range-separated hybrids, TD-DFT gradient, RPA, STAB
   Michael Roemelt        : Original ROCIS implementation
   Masaaki Saitow         : Open-shell DLPNO-CCSD energy and density
   Barbara Sandhoefer     : DKH picture change effects
   Avijit Sen             : IP-ROCIS
   Kantharuban Sivalingam : CASSCF convergence, NEVPT2, FIC-MRCI
   Bernardo de Souza      : ESD, SOC TD-DFT
   Georgi Stoychev        : AutoAux, RI-MP2 NMR
   Willem Van den Heuvel  : Paramagnetic NMR
   Boris Wezisla          : Elementary symmetry handling
   Frank Wennmohs         : Technical directorship


 We gratefully acknowledge several colleagues who have allowed us to
 interface, adapt or use parts of their codes:
   Stefan Grimme, W. Hujo, H. Kruse,             : VdW corrections, initial TS optimization,
                  C. Bannwarth                     DFT functionals, gCP, sTDA/sTD-DF
   Ed Valeev, F. Pavosevic, A. Kumar             : LibInt (2-el integral package), F12 methods
   Garnet Chan, S. Sharma, J. Yang, R. Olivares  : DMRG
   Ulf Ekstrom                                   : XCFun DFT Library
   Mihaly Kallay                                 : mrcc  (arbitrary order and MRCC methods)
   Andreas Klamt, Michael Diedenhofen            : otool_cosmo (COSMO solvation model)
   Jiri Pittner, Ondrej Demel                    : Mk-CCSD
   Frank Weinhold                                : gennbo (NPA and NBO analysis)
   Christopher J. Cramer and Donald G. Truhlar   : smd solvation model
   Lars Goerigk                                  : TD-DFT with DH, B97 family of functionals
   V. Asgeirsson, H. Jonsson                     : NEB implementation
   FAccTs GmbH                                   : IRC, NEB, NEB-TS, Multilevel, MM, QM/MM, CI optimization
   S Lehtola, MJT Oliveira, MAL Marques          : LibXC Library


 Your calculation uses the libint2 library for the computation of 2-el integrals
 For citations please refer to: http://libint.valeyev.net

 Your ORCA version has been built with support for libXC version: 4.2.3
 For citations please refer to: https://tddft.org/programs/libxc/

 This ORCA versions uses:
   CBLAS   interface :  Fast vector & matrix operations
   LAPACKE interface :  Fast linear algebra routines
   SCALAPACK package :  Parallel linear algebra routines


Your calculation utilizes the geometrical counterpoise correction gCP
Please cite in your paper:
H.Kruse, S. Grimme J.Chem.Phys., 136, (2012), 154101 
   

Your calculation utilizes the atom-pairwise dispersion correction
based on tight binding partial charges (D4)
Cite in your paper:
E.Caldeweyher, C.Bannwarth, S.Grimme, J.Chem.Phys., (2017), 147, 034112.
E.Caldeweyher, S.Ehlert, A.Hansen, H.Neugebauer, S.Grimme, J.Chem.Phys., (2018), in progress.
   

----- Orbital basis set information -----
Your calculation utilizes the basis: def2-SVP
   F. Weigend and R. Ahlrichs, Phys. Chem. Chem. Phys. 7, 3297 (2005).

----- AuxJ basis set information -----
Your calculation utilizes the auxiliary basis: def2/J
   F. Weigend, Phys. Chem. Chem. Phys. 8, 1057 (2006).

================================================================================
                                        WARNINGS
                       Please study these warnings very carefully!
================================================================================


WARNING: Geometry Optimization
  ===> : Switching off AutoStart
         For restart on a previous wavefunction, please use MOREAD

INFO   : the flag for use of LIBINT has been found!

================================================================================
                                       INPUT FILE
================================================================================
NAME = phosphoric-acid.inp
|  1> ! revPBE D4 gCP(DFT/SVP) def2-SVP Opt Freq TightOpt TightSCF Grid4 FinalGrid5 LargePrint
|  2> 
|  3> %pal
|  4>  nprocs 8
|  5> end
|  6> 
|  7> *xyz 0 1
|  8> P       -2.4104098784      1.8563623415      0.0402829363                 
|  9> O       -3.0296762791      1.1551087236      1.2796529229                 
| 10> O       -1.1424161647      2.9006050306      0.6029484817                 
| 11> H       -0.5467635646      2.3122400712      1.1320491127                 
| 12> O       -1.7866169855      0.6212466240     -1.0086284487                 
| 13> H       -2.5536510160      0.0158313857     -1.1700409784                 
| 14> O       -3.6703003311      2.7627903852     -0.7381178685                 
| 15> H       -4.0378525027      3.3462719684     -0.0272188135                 
| 16> *
| 17> 
| 18>                          ****END OF INPUT****
================================================================================

                       *****************************
                       * Geometry Optimization Run *
                       *****************************

Geometry optimization settings:
Update method            Update   .... BFGS
Choice of coordinates    CoordSys .... Z-matrix Internals
Initial Hessian          InHess   .... Almoef's Model

Convergence Tolerances:
Energy Change            TolE     ....  1.0000e-06 Eh
Max. Gradient            TolMAXG  ....  1.0000e-04 Eh/bohr
RMS Gradient             TolRMSG  ....  3.0000e-05 Eh/bohr
Max. Displacement        TolMAXD  ....  1.0000e-03 bohr
RMS Displacement         TolRMSD  ....  6.0000e-04 bohr
Strict Convergence                ....  False
------------------------------------------------------------------------------
                        ORCA OPTIMIZATION COORDINATE SETUP
------------------------------------------------------------------------------

The optimization will be done in new redundant internal coordinates
Making redundant internal coordinates   ...  (new redundants) done
Evaluating the initial hessian          ...  (Almloef) done
Evaluating the coordinates              ...  done
Calculating the B-matrix                .... done
Calculating the G-matrix                .... done
Diagonalizing the G-matrix              .... done
The first mode is                       ....    7
The number of degrees of freedom        ....   18

    -----------------------------------------------------------------
                    Redundant Internal Coordinates


    -----------------------------------------------------------------
         Definition                    Initial Value    Approx d2E/dq
    -----------------------------------------------------------------
      1. B(O   1,P   0)                  1.5528         1.034147   
      2. B(O   2,P   0)                  1.7363         0.527013   
      3. B(H   3,O   2)                  0.9904         0.464987   
      4. B(O   4,P   0)                  1.7363         0.527013   
      5. B(H   5,O   4)                  0.9904         0.464987   
      6. B(O   6,P   0)                  1.7363         0.527013   
      7. B(H   7,O   6)                  0.9904         0.464987   
      8. A(O   4,P   0,O   6)          111.1743         0.461294   
      9. A(O   1,P   0,O   4)          107.7092         0.522660   
     10. A(O   2,P   0,O   4)          111.1743         0.461294   
     11. A(O   1,P   0,O   2)          107.7092         0.522660   
     12. A(O   1,P   0,O   6)          107.7092         0.522660   
     13. A(O   2,P   0,O   6)          111.1743         0.461294   
     14. A(P   0,O   2,H   3)          104.7761         0.376067   
     15. A(P   0,O   4,H   5)          104.7761         0.376067   
     16. A(P   0,O   6,H   7)          104.7762         0.376067   
     17. D(H   3,O   2,P   0,O   1)     54.6907         0.005510   
     18. D(H   3,O   2,P   0,O   6)    172.4739         0.005510   
     19. D(H   3,O   2,P   0,O   4)    -63.0925         0.005510   
     20. D(H   5,O   4,P   0,O   6)    -63.0935         0.005510   
     21. D(H   5,O   4,P   0,O   2)    172.4728         0.005510   
     22. D(H   5,O   4,P   0,O   1)     54.6896         0.005510   
     23. D(H   7,O   6,P   0,O   1)     54.6890         0.005510   
     24. D(H   7,O   6,P   0,O   4)    172.4722         0.005510   
     25. D(H   7,O   6,P   0,O   2)    -63.0942         0.005510   
    -----------------------------------------------------------------

Number of atoms                         .... 8
Number of degrees of freedom            .... 25

         *************************************************************
         *                GEOMETRY OPTIMIZATION CYCLE   1            *
         *************************************************************
---------------------------------
CARTESIAN COORDINATES (ANGSTROEM)
---------------------------------
  P     -2.410410    1.856362    0.040283
  O     -3.029676    1.155109    1.279653
  O     -1.142416    2.900605    0.602948
  H     -0.546764    2.312240    1.132049
  O     -1.786617    0.621247   -1.008628
  H     -2.553651    0.015831   -1.170041
  O     -3.670300    2.762790   -0.738118
  H     -4.037853    3.346272   -0.027219

----------------------------
CARTESIAN COORDINATES (A.U.)
----------------------------
  NO LB      ZA    FRAG     MASS         X           Y           Z
   0 P    15.0000    0    30.974   -4.555015    3.508016    0.076124
   1 O     8.0000    0    15.999   -5.725258    2.182839    2.418194
   2 O     8.0000    0    15.999   -2.158854    5.481349    1.139408
   3 H     1.0000    0     1.008   -1.033233    4.369500    2.139263
   4 O     8.0000    0    15.999   -3.376217    1.173986   -1.906032
   5 H     1.0000    0     1.008   -4.825701    0.029917   -2.211057
   6 O     8.0000    0    15.999   -6.935862    5.220917   -1.394841
   7 H     1.0000    0     1.008   -7.630435    6.323538   -0.051436

--------------------------------
INTERNAL COORDINATES (ANGSTROEM)
--------------------------------
 P      0   0   0     0.000000000000     0.00000000     0.00000000
 O      1   0   0     1.552831438160     0.00000000     0.00000000
 O      1   2   0     1.736330431600   107.70917881     0.00000000
 H      3   1   2     0.990415480079   104.77613713    54.69070512
 O      1   2   3     1.736330470397   107.70917452   119.99999762
 H      5   1   2     0.990415478198   104.77614714    54.68964454
 O      1   2   3     1.736330488163   107.70919242   239.99998691
 H      7   1   2     0.990415480080   104.77615404    54.68899108

---------------------------
INTERNAL COORDINATES (A.U.)
---------------------------
 P      0   0   0     0.000000000000     0.00000000     0.00000000
 O      1   0   0     2.934426150266     0.00000000     0.00000000
 O      1   2   0     3.281188993718   107.70917881     0.00000000
 H      3   1   2     1.871614016146   104.77613713    54.69070512
 O      1   2   3     3.281189067034   107.70917452   119.99999762
 H      5   1   2     1.871614012592   104.77614714    54.68964454
 O      1   2   3     3.281189100606   107.70919242   239.99998691
 H      7   1   2     1.871614016147   104.77615404    54.68899108

---------------------
BASIS SET INFORMATION
---------------------
There are 3 groups of distinct atoms

 Group   1 Type P   : 10s7p1d contracted to 4s3p1d pattern {5311/511/1}
 Group   2 Type O   : 7s4p1d contracted to 3s2p1d pattern {511/31/1}
 Group   3 Type H   : 4s1p contracted to 2s1p pattern {31/1}

Atom   0P    basis set group =>   1
Atom   1O    basis set group =>   2
Atom   2O    basis set group =>   2
Atom   3H    basis set group =>   3
Atom   4O    basis set group =>   2
Atom   5H    basis set group =>   3
Atom   6O    basis set group =>   2
Atom   7H    basis set group =>   3

-------------------------
BASIS SET IN INPUT FORMAT
-------------------------

 # Basis set for element : H 
 NewGTO H 
 S 3 
   1      13.0107010000      0.0334854848
   2       1.9622572000      0.2347218709
   3       0.4445379600      0.8137702853
 S 1 
   1       0.1219496200      1.0000000000
 P 1 
   1       0.8000000000      1.0000000000
  end;

 # Basis set for element : O 
 NewGTO O 
 S 5 
   1    2266.1767785000     -0.0053893504
   2     340.8701019100     -0.0402347214
   3      77.3631351670     -0.1800818421
   4      21.4796449400     -0.4682885766
   5       6.6589433124     -0.4469261716
 S 1 
   1       0.8097597567      1.0000000000
 S 1 
   1       0.2553077223      1.0000000000
 P 3 
   1      17.7215043170      0.0626302488
   2       3.8635505440      0.3333113849
   3       1.0480920883      0.7414863830
 P 1 
   1       0.2764154441      1.0000000000
 D 1 
   1       1.2000000000      1.0000000000
  end;

 # Basis set for element : P 
 NewGTO P 
 S 5 
   1    8002.4795106000      0.0055255553
   2    1203.6813590000      0.0413263672
   3     273.4422703100      0.1860700590
   4      76.6555415170      0.4771070068
   5      23.5169274350      0.4322476888
 S 3 
   1      39.7916834390      0.0909541455
   2       4.2770343323     -0.5508556562
   3       1.6940256888     -0.5182699790
 S 1 
   1       0.2756767464      1.0000000000
 S 1 
   1       0.1049559010      1.0000000000
 P 5 
   1     219.5075582300      0.0095739101
   2      51.2741550300      0.0679938519
   3      15.9215958920      0.2498320975
   4       5.5069913481      0.4814817905
   5       1.9537719426      0.3886979854
 P 1 
   1       0.4780339793      1.0000000000
 P 1 
   1       0.1365795262      1.0000000000
 D 1 
   1       0.4500000000      1.0000000000
  end;

---------------------------------
AUXILIARY/J BASIS SET INFORMATION
---------------------------------
There are 3 groups of distinct atoms

 Group   1 Type P   : 14s5p5d2f1g contracted to 8s4p3d1f1g pattern {71111111/2111/311/2/1}
 Group   2 Type O   : 12s5p4d2f1g contracted to 6s4p3d1f1g pattern {711111/2111/211/2/1}
 Group   3 Type H   : 5s2p1d contracted to 3s1p1d pattern {311/2/1}

Atom   0P    basis set group =>   1
Atom   1O    basis set group =>   2
Atom   2O    basis set group =>   2
Atom   3H    basis set group =>   3
Atom   4O    basis set group =>   2
Atom   5H    basis set group =>   3
Atom   6O    basis set group =>   2
Atom   7H    basis set group =>   3

-------------------------------------
AUXILIARY/J BASIS SET IN INPUT FORMAT
-------------------------------------

 # Auxiliary/J basis set for element : H 
 NewAuxJGTO H 
 S 3 
   1      15.6752927000      0.1007184237
   2       3.6063578000      0.3404257499
   3       1.2080016000      0.6491996172
 S 1 
   1       0.4726794000      1.0000000000
 S 1 
   1       0.2018100000      1.0000000000
 P 2 
   1       2.0281365000      0.5596620919
   2       0.5358730000      0.5596620919
 D 1 
   1       2.2165124000      1.0000000000
  end;

 # Auxiliary/J basis set for element : O 
 NewAuxJGTO O 
 S 7 
   1    2876.8216605000      0.0168151159
   2    1004.7443032000      0.0340137548
   3     369.7579954000      0.1194951309
   4     142.9442404000      0.2664627624
   5      57.8366425000      0.4202764046
   6      24.3864983000      0.2765077335
   7      10.6622662000      0.0057008815
 S 1 
   1       4.8070437000     -1.0000000000
 S 1 
   1       2.2210770000      1.0000000000
 S 1 
   1       1.0447795000      1.0000000000
 S 1 
   1       0.4968425000      1.0000000000
 S 1 
   1       0.2371384000      1.0000000000
 P 2 
   1      64.2613382000     -0.2731534179
   2      16.3006076000     -0.8168011598
 P 1 
   1       4.3550542000      1.0000000000
 P 1 
   1       1.2019554000      1.0000000000
 P 1 
   1       0.3354196000      1.0000000000
 D 2 
   1       9.2146611000     -0.4661230638
   2       2.8435251000     -0.6600908911
 D 1 
   1       0.9955759000     -1.0000000000
 D 1 
   1       0.3649441000     -1.0000000000
 F 2 
   1       2.6420115000      0.5931563945
   2       0.7345613000      0.5931563945
 G 1 
   1       1.3931000000     -1.0000000000
  end;

 # Auxiliary/J basis set for element : P 
 NewAuxJGTO P 
 S 7 
   1    7402.6405628000      0.0283683821
   2    2444.3806296000      0.0467822411
   3    1031.0485275000      0.1580852563
   4     387.5215861000      0.3531223810
   5     159.3342518000      0.4193943947
   6      72.5438912000      0.1609216222
   7      29.2976155000     -0.0496128323
 S 1 
   1      13.1685047000      1.0000000000
 S 1 
   1       6.4235268000      1.0000000000
 S 1 
   1       3.1479365000      1.0000000000
 S 1 
   1       1.4941282000     -1.0000000000
 S 1 
   1       0.6745215000      1.0000000000
 S 1 
   1       0.3252877000      1.0000000000
 S 1 
   1       0.1527285000      1.0000000000
 P 2 
   1      10.6100703000      1.3628381028
   2       3.3972489000     -0.9765554975
 P 1 
   1       1.0821336000      1.0000000000
 P 1 
   1       0.3436265000      1.0000000000
 P 1 
   1       0.1090044000      1.0000000000
 D 3 
   1       5.5575593000      1.4455213379
   2       2.6033240000     -2.6898670329
   3       1.2378589000      1.8946125981
 D 1 
   1       0.5939646000      1.0000000000
 D 1 
   1       0.2858732000     -1.0000000000
 F 2 
   1       1.0262041000      0.8266279730
   2       0.2959414000      0.3059900147
 G 1 
   1       0.5510844000     -1.0000000000
  end;



           ************************************************************
           *        Program running with 8 parallel MPI-processes     *
           *              working on a common directory               *
           ************************************************************
------------------------------------------------------------------------------
                           ORCA GTO INTEGRAL CALCULATION
                           -- RI-GTO INTEGRALS CHOSEN --
------------------------------------------------------------------------------

                         BASIS SET STATISTICS AND STARTUP INFO

Gaussian basis set:
 # of primitive gaussian shells          ...   81
 # of primitive gaussian functions       ...  153
 # of contracted shells                  ...   41
 # of contracted basis functions         ...   89
 Highest angular momentum                ...    2
 Maximum contraction depth               ...    5
Auxiliary gaussian basis set:
 # of primitive gaussian shells          ...  147
 # of primitive gaussian functions       ...  405
 # of contracted shells                  ...   92
 # of contracted aux-basis functions     ...  280
 Highest angular momentum                ...    4
 Maximum contraction depth               ...    7
Ratio of auxiliary to basis functions    ...  3.15
Integral package used                  ... LIBINT
 One Electron integrals                  ... done
 Ordering auxiliary basis shells         ... done
 Integral threshhold             Thresh  ...  2.500e-11
 Primitive cut-off               TCut    ...  2.500e-12
 Pre-screening matrix                    ... done
 Shell pair data                         ... 
 Ordering of the shell pairs             ... done (   0.000 sec) 848 of 861 pairs
 Determination of significant pairs      ... done (   0.000 sec)
 Creation of shell pair data             ... done (   0.000 sec)
 Storage of shell pair data              ... done (   0.006 sec)
 Shell pair data done in (   0.006 sec)
 Computing two index integrals           ... done
 Cholesky decomposition of the V-matrix  ... done


Timings:
 Total evaluation time                   ...   0.308 sec (  0.005 min)
 One electron matrix time                ...   0.023 sec (  0.000 min) =  7.6%
 Schwartz matrix evaluation time         ...   0.209 sec (  0.003 min) = 67.8%
 Two index repulsion integral time       ...   0.012 sec (  0.000 min) =  3.9%
 Cholesky decomposition of V             ...   0.012 sec (  0.000 min) =  3.9%
 Three index repulsion integral time     ...   0.000 sec (  0.000 min) =  0.0%



           ************************************************************
           *        Program running with 8 parallel MPI-processes     *
           *              working on a common directory               *
           ************************************************************
-------------------------------------------------------------------------------
                                 ORCA SCF
-------------------------------------------------------------------------------

------------
SCF SETTINGS
------------
Hamiltonian:
 Density Functional     Method          .... DFT(GTOs)
 Exchange Functional    Exchange        .... PBE
   PBE kappa parameter   XKappa         ....  1.245000
   PBE mue parameter    XMuePBE         ....  0.219520
 Correlation Functional Correlation     .... PBE
   PBE beta parameter  CBetaPBE         ....  0.066725
 LDA part of GGA corr.  LDAOpt          .... PW91-LDA
 Gradients option       PostSCFGGA      .... off
   Density functional embedding theory  .... OFF
   NL short-range parameter             ....  3.700000
 RI-approximation to the Coulomb term is turned on
   Number of auxiliary basis functions  .... 280


General Settings:
 Integral files         IntName         .... phosphoric-acid
 Hartree-Fock type      HFTyp           .... RHF
 Total Charge           Charge          ....    0
 Multiplicity           Mult            ....    1
 Number of Electrons    NEL             ....   50
 Basis Dimension        Dim             ....   89
 Nuclear Repulsion      ENuc            ....    260.6516424452 Eh

Convergence Acceleration:
 DIIS                   CNVDIIS         .... on
   Start iteration      DIISMaxIt       ....    12
   Startup error        DIISStart       ....  0.200000
   # of expansion vecs  DIISMaxEq       ....     5
   Bias factor          DIISBfac        ....   1.050
   Max. coefficient     DIISMaxC        ....  10.000
 Newton-Raphson         CNVNR           .... off
 SOSCF                  CNVSOSCF        .... on
   Start iteration      SOSCFMaxIt      ....   150
   Startup grad/error   SOSCFStart      ....  0.003300
 Level Shifting         CNVShift        .... on
   Level shift para.    LevelShift      ....    0.2500
   Turn off err/grad.   ShiftErr        ....    0.0010
 Zerner damping         CNVZerner       .... off
 Static damping         CNVDamp         .... on
   Fraction old density DampFac         ....    0.7000
   Max. Damping (<1)    DampMax         ....    0.9800
   Min. Damping (>=0)   DampMin         ....    0.0000
   Turn off err/grad.   DampErr         ....    0.1000
 Fernandez-Rico         CNVRico         .... off

SCF Procedure:
 Maximum # iterations   MaxIter         ....   125
 SCF integral mode      SCFMode         .... Direct
   Integral package                     .... LIBINT
 Reset frequency        DirectResetFreq ....    20
 Integral Threshold     Thresh          ....  2.500e-11 Eh
 Primitive CutOff       TCut            ....  2.500e-12 Eh

Convergence Tolerance:
 Convergence Check Mode ConvCheckMode   .... Total+1el-Energy
 Convergence forced     ConvForced      .... 0
 Energy Change          TolE            ....  1.000e-08 Eh
 1-El. energy change                    ....  1.000e-05 Eh
 Orbital Gradient       TolG            ....  1.000e-05
 Orbital Rotation angle TolX            ....  1.000e-05
 DIIS Error             TolErr          ....  5.000e-07


Diagonalization of the overlap matrix:
Smallest eigenvalue                        ... 1.604e-02
Time for diagonalization                   ...    0.011 sec
Threshold for overlap eigenvalues          ... 1.000e-08
Number of eigenvalues below threshold      ... 0
Time for construction of square roots      ...    0.013 sec
Total time needed                          ...    0.025 sec

-------------------
DFT GRID GENERATION
-------------------

General Integration Accuracy     IntAcc      ...  4.670
Radial Grid Type                 RadialGrid  ... Gauss-Chebyshev
Angular Grid (max. acc.)         AngularGrid ... Lebedev-302
Angular grid pruning method      GridPruning ... 3 (G Style)
Weight generation scheme         WeightScheme... Becke
Basis function cutoff            BFCut       ...    1.0000e-11
Integration weight cutoff        WCut        ...    1.0000e-14
Grids for H and He will be reduced by one unit

# of grid points (after initial pruning)     ...  41876 (   0.0 sec)
# of grid points (after weights+screening)   ...  40314 (   0.1 sec)
nearest neighbour list constructed           ...    0.0 sec
Grid point re-assignment to atoms done       ...    0.0 sec
Grid point division into batches done        ...    0.4 sec
Reduced shell lists constructed in    0.4 sec

Total number of grid points                  ...    40314
Total number of batches                      ...      633
Average number of points per batch           ...       63
Average number of grid points per atom       ...     5039
Average number of shells per batch           ...    30.07 (73.35%)
Average number of basis functions per batch  ...    67.80 (76.18%)
Average number of large shells per batch     ...    27.16 (90.31%)
Average number of large basis fcns per batch ...    61.19 (90.24%)
Maximum spatial batch extension              ...  15.15, 15.80, 13.12 au
Average spatial batch extension              ...   0.34,  0.36,  0.32 au

Time for grid setup =    0.544 sec

------------------------------
INITIAL GUESS: MODEL POTENTIAL
------------------------------
Loading Hartree-Fock densities                     ... done
Calculating cut-offs                               ... done
Setting up the integral package                    ... done
Initializing the effective Hamiltonian             ... done
Starting the Coulomb interaction                   ... done (   0.0 sec)
Reading the grid                                   ... done
Mapping shells                                     ... done
Starting the XC term evaluation                    ... done (   0.1 sec)
  promolecular density results
     # of electrons  =     49.998499552
     EX              =    -56.273693297
     EC              =     -1.751533650
     EX+EC           =    -58.025226947
Transforming the Hamiltonian                       ... done (   0.0 sec)
Diagonalizing the Hamiltonian                      ... done (   0.0 sec)
Back transforming the eigenvectors                 ... done (   0.0 sec)
Now organizing SCF variables                       ... done
                      ------------------
                      INITIAL GUESS DONE (   0.8 sec)
                      ------------------
----------------------
INITIAL GUESS ORBITALS
----------------------
                      0         1         2         3         4         5   
                 -76.32735 -18.95556 -18.95547 -18.95547 -18.94514  -6.35856
                   2.00000   2.00000   2.00000   2.00000   2.00000   2.00000
                  --------  --------  --------  --------  --------  --------
  0P   1s        -0.994472  0.000038  0.000000 -0.000000 -0.000006  0.300005
  0P   2s         0.021455  0.000468  0.000003 -0.000002  0.000075  1.017350
  0P   3s         0.010907 -0.000857 -0.000005  0.000003 -0.001021 -0.058311
  0P   4s        -0.001192  0.015592  0.000091 -0.000052  0.015870  0.013672
  0P   1pz       -0.000087 -0.000019  0.000030  0.000003  0.000145 -0.001221
  0P   1px        0.000043  0.000009  0.000022  0.000040 -0.000072  0.000610
  0P   1py        0.000049  0.000010  0.000034 -0.000030 -0.000082  0.000691
  0P   2pz        0.000506 -0.000058 -0.000156 -0.000385  0.000571 -0.001427
  0P   2px       -0.000253  0.000025  0.000342 -0.000531 -0.000286  0.000713
  0P   2py       -0.000286  0.000035 -0.000577 -0.000211 -0.000323  0.000807
  0P   3pz        0.000675 -0.002464  0.002069 -0.004373  0.006921 -0.001281
  0P   3px       -0.000337  0.001171  0.007284 -0.001254 -0.003458  0.000640
  0P   3py       -0.000382  0.001373 -0.002737 -0.006644 -0.003916  0.000725
  0P   1dz2       0.000164 -0.000356  0.000124  0.000234  0.000390 -0.000352
  0P   1dxz      -0.000199  0.000432 -0.000420 -0.000714 -0.000473  0.000426
  0P   1dyz      -0.000225  0.000484  0.000922  0.000339 -0.000535  0.000482
  0P   1dx2y2    -0.000014  0.000031 -0.000384 -0.000530 -0.000033  0.000030
  0P   1dxy       0.000113 -0.000252  0.000859 -0.000983  0.000267 -0.000241
  1O   1s         0.000027 -0.005455 -0.000032  0.000018 -0.988828 -0.000183
  1O   2s         0.000861  0.001420  0.000008 -0.000005  0.041246 -0.001085
  1O   3s        -0.003126 -0.003602 -0.000021  0.000012 -0.028429  0.005772
  1O   1pz        0.000019 -0.000063  0.000057 -0.000129 -0.001350  0.000023
  1O   1px       -0.000010  0.000030  0.000211 -0.000042  0.000675 -0.000012
  1O   1py       -0.000011  0.000035 -0.000085 -0.000191  0.000764 -0.000013
  1O   2pz        0.001918  0.000718 -0.000370  0.000873  0.005622 -0.004565
  1O   2px       -0.000959 -0.000347 -0.001420  0.000304 -0.002809  0.002281
  1O   2py       -0.001086 -0.000402  0.000588  0.001282 -0.003181  0.002583
  1O   1dz2      -0.000342  0.000014  0.000062 -0.000151 -0.000204  0.000306
  1O   1dxz       0.000414 -0.000019  0.000111  0.000004  0.000247 -0.000370
  1O   1dyz       0.000468 -0.000020 -0.000069 -0.000079  0.000280 -0.000419
  1O   1dx2y2     0.000029 -0.000001 -0.000115 -0.000055  0.000017 -0.000026
  1O   1dxy      -0.000234  0.000011 -0.000046  0.000063 -0.000140  0.000210
  2O   1s         0.000055 -0.566651 -0.278386  0.760952  0.003281 -0.000094
  2O   2s         0.000835  0.024111  0.011560 -0.031175  0.000619 -0.001525
  2O   3s        -0.002132 -0.014480 -0.006937  0.016662 -0.002162  0.004816
  2O   1pz       -0.000061  0.000104  0.000108 -0.000498  0.000072 -0.000013
  2O   1px       -0.000166 -0.000057  0.000101 -0.000035 -0.000206  0.000089
  2O   1py       -0.000125 -0.001006 -0.000663  0.001209 -0.000066  0.000147
  2O   2pz        0.000182  0.001894  0.000518 -0.000615 -0.000554 -0.000338
  2O   2px        0.000959  0.002817  0.000612 -0.003127  0.001385 -0.002219
  2O   2py        0.001337  0.001950  0.002082 -0.001817  0.000708 -0.003525
  2O   1dz2       0.000200  0.000025  0.000055 -0.000113  0.000104 -0.000405
  2O   1dxz      -0.000244  0.000192  0.000064 -0.000336  0.000066  0.000516
  2O   1dyz      -0.000043 -0.000426 -0.000210  0.000418  0.000035  0.000087
  2O   1dx2y2    -0.000002  0.000007  0.000099  0.000041 -0.000063  0.000022
  2O   1dxy      -0.000262 -0.000523 -0.000294  0.000709 -0.000097  0.000528
  3H   1s         0.000499 -0.000800  0.000009  0.001087  0.000110 -0.001259
  3H   2s         0.000310  0.000223 -0.000334 -0.001643 -0.001444 -0.001599
  3H   1pz       -0.000164  0.000820  0.000406 -0.001108  0.000175  0.000367
  3H   1px       -0.000311  0.000886  0.000584 -0.000984  0.000186  0.000704
  3H   1py       -0.000100 -0.001169 -0.000290  0.001626  0.000267  0.000238
  4O   1s         0.000055 -0.569815 -0.523139 -0.615854  0.003281 -0.000094
  4O   2s         0.000835  0.024242  0.021360  0.025355  0.000619 -0.001525
  4O   3s        -0.002132 -0.014558 -0.011046 -0.014193 -0.002162  0.004816
  4O   1pz        0.000141  0.000294  0.000331  0.000292  0.000225 -0.000112
  4O   1px       -0.000071 -0.000969 -0.000721 -0.001180 -0.000015  0.000119
  4O   1py        0.000148  0.000127 -0.000186 -0.000120  0.000036 -0.000055
  4O   2pz       -0.001011 -0.001972 -0.002077 -0.001984 -0.001594  0.002462
  4O   2px        0.001019  0.000995 -0.000134  0.001984  0.000367 -0.002780
  4O   2py       -0.000824 -0.003255 -0.001376 -0.002045 -0.000230  0.001918
  4O   1dz2       0.000058 -0.000221 -0.000342 -0.000248 -0.000138 -0.000122
  4O   1dxz       0.000182  0.000210  0.000199  0.000308  0.000056 -0.000361
  4O   1dyz      -0.000351 -0.000072 -0.000067 -0.000108 -0.000077  0.000728
  4O   1dx2y2     0.000050  0.000195  0.000126  0.000120 -0.000038 -0.000117
  4O   1dxy       0.000089  0.000602  0.000437  0.000629  0.000018 -0.000169
  5H   1s         0.000499 -0.000800 -0.000950 -0.000528  0.000110 -0.001259
  5H   2s         0.000310  0.000219  0.001591  0.000530 -0.001444 -0.001599
  5H   1pz        0.000215 -0.000171  0.000104 -0.000245 -0.000134 -0.000491
  5H   1px       -0.000001 -0.001432 -0.001434 -0.001348  0.000193  0.000013
  5H   1py        0.000295 -0.000879 -0.000666 -0.001007 -0.000285 -0.000668
  6O   1s         0.000055 -0.575872  0.791568 -0.139393  0.003281 -0.000094
  6O   2s         0.000835  0.024490 -0.032496  0.005577  0.000619 -0.001525
  6O   3s        -0.002132 -0.014686  0.017729 -0.002324 -0.002162  0.004816
  6O   1pz        0.000097  0.000960 -0.001424  0.000104  0.000109 -0.000144
  6O   1px        0.000149  0.000350 -0.000134 -0.000103  0.000019 -0.000074
  6O   1py       -0.000124  0.000123 -0.000249 -0.000092 -0.000200  0.000060
  6O   2pz       -0.001185 -0.001133  0.002203  0.000639 -0.001000  0.003161
  6O   2px       -0.000972 -0.003232  0.002539  0.000229 -0.000179  0.002358
  6O   2py        0.000627  0.001986 -0.002213  0.001194  0.001302 -0.001383
  6O   1dz2      -0.000024  0.000208 -0.000168  0.000068 -0.000019  0.000036
  6O   1dxz      -0.000221 -0.000421  0.000574 -0.000016 -0.000058  0.000439
  6O   1dyz       0.000074  0.000491 -0.000714  0.000158  0.000114 -0.000142
  6O   1dx2y2    -0.000068 -0.000205  0.000172  0.000067  0.000106  0.000137
  6O   1dxy       0.000333 -0.000068  0.000068 -0.000022  0.000043 -0.000696
  7H   1s         0.000499 -0.000810  0.000927 -0.000551  0.000110 -0.001259
  7H   2s         0.000310  0.000238 -0.001253  0.001110 -0.001444 -0.001599
  7H   1pz        0.000041  0.001354 -0.001791  0.000591 -0.000173 -0.000105
  7H   1px        0.000266 -0.000459  0.000649  0.000064 -0.000313 -0.000603
  7H   1py       -0.000248  0.000932 -0.001163  0.000056  0.000093  0.000559
                      6         7         8         9        10        11   
                  -4.57258  -4.57075  -4.57075  -1.04200  -1.00686  -1.00686
                   2.00000   2.00000   2.00000   2.00000   2.00000   2.00000
                  --------  --------  --------  --------  --------  --------
  0P   1s        -0.000687 -0.000000  0.000000  0.030987 -0.000000  0.000000
  0P   2s        -0.002771 -0.000001 -0.000000  0.184274 -0.000000  0.000001
  0P   3s        -0.003018 -0.000001 -0.000000  0.260776 -0.000000  0.000003
  0P   4s         0.000246  0.000000  0.000000 -0.016874 -0.000001 -0.000003
  0P   1pz       -0.783007 -0.224639 -0.547070 -0.013627  0.015659  0.028599
  0P   1px        0.391102  0.483993 -0.758940  0.006809  0.049313  0.005596
  0P   1py        0.443308 -0.823774 -0.296717  0.007710 -0.015872  0.045604
  0P   2pz       -0.045026 -0.012589 -0.030712  0.018526 -0.023547 -0.042778
  0P   2px        0.022490  0.027191 -0.042577 -0.009258 -0.073871 -0.008216
  0P   2py        0.025491 -0.046223 -0.016682 -0.010482  0.023617 -0.068350
  0P   3pz        0.004447  0.002031  0.004836  0.004781 -0.005738 -0.020796
  0P   3px       -0.002221 -0.004238  0.006766 -0.002385 -0.030907 -0.011099
  0P   3py       -0.002518  0.007328  0.002573 -0.002705  0.017154 -0.026955
  0P   1dz2      -0.002239  0.000564  0.000036  0.001400 -0.003931  0.008285
  0P   1dxz       0.002709 -0.001379 -0.000526 -0.001696  0.006545 -0.020558
  0P   1dyz       0.003067  0.001725 -0.000713 -0.001919 -0.023635  0.014765
  0P   1dx2y2     0.000191 -0.001340 -0.000400 -0.000120  0.005639 -0.018647
  0P   1dxy      -0.001533  0.000021 -0.002459  0.000959 -0.029292 -0.021207
  1O   1s        -0.000659 -0.000000  0.000000  0.128094 -0.000001  0.000001
  1O   2s        -0.001278 -0.000000  0.000000  0.260370 -0.000002  0.000003
  1O   3s         0.005403  0.000002 -0.000000  0.157873 -0.000000  0.000002
  1O   1pz        0.000078  0.000031  0.000070 -0.055118 -0.002044 -0.004040
  1O   1px       -0.000039 -0.000059  0.000100  0.027539 -0.006819 -0.000998
  1O   1py       -0.000044  0.000107  0.000035  0.031187  0.002408 -0.006257
  1O   2pz       -0.005092 -0.000129 -0.000223 -0.022235 -0.001384 -0.000976
  1O   2px        0.002544  0.000167 -0.000354  0.011109 -0.002427  0.000865
  1O   2py        0.002881 -0.000371 -0.000082  0.012581 -0.000302 -0.002489
  1O   1dz2       0.000385 -0.000120 -0.000301  0.003729  0.000516  0.000952
  1O   1dxz      -0.000466  0.000209 -0.000132 -0.004513  0.000790 -0.000278
  1O   1dyz      -0.000527 -0.000246  0.000002 -0.005110 -0.000548  0.000640
  1O   1dx2y2    -0.000033 -0.000203  0.000070 -0.000318 -0.000601  0.000358
  1O   1dxy       0.000263  0.000028  0.000219  0.002553 -0.000528 -0.000557
  2O   1s         0.000044 -0.000000 -0.000178  0.139534 -0.155660 -0.183997
  2O   2s         0.000409  0.000103 -0.001559  0.284117 -0.322693 -0.383123
  2O   3s        -0.000981 -0.000571  0.003869  0.163569 -0.173624 -0.196743
  2O   1pz        0.000005  0.000034 -0.000033  0.008916 -0.016408 -0.019200
  2O   1px       -0.000028 -0.000046 -0.000035 -0.006775 -0.008564 -0.005269
  2O   1py       -0.000009  0.000043  0.000030 -0.048662  0.050000  0.054943
  2O   2pz        0.000398 -0.000512 -0.000401 -0.007128  0.000690  0.001538
  2O   2px        0.001246 -0.000333 -0.001882 -0.016370  0.005608  0.007365
  2O   2py        0.001082 -0.000698 -0.003336 -0.014734  0.010106  0.008735
  2O   1dz2       0.000106 -0.000117 -0.000610 -0.002231  0.001415  0.001809
  2O   1dxz      -0.000383  0.000153  0.000654  0.002813 -0.002063 -0.002710
  2O   1dyz      -0.000298  0.000051  0.000207  0.000165  0.000618  0.001130
  2O   1dx2y2    -0.000064  0.000245 -0.000010 -0.000097  0.000983 -0.000276
  2O   1dxy      -0.000313  0.000244  0.000925  0.002576 -0.000632 -0.000845
  3H   1s         0.000212  0.000031 -0.001512  0.079085 -0.094841 -0.110901
  3H   2s        -0.000420  0.000786 -0.001820  0.002124  0.005292  0.004423
  3H   1pz       -0.000125 -0.000103  0.000453 -0.007736  0.009023  0.010523
  3H   1px       -0.000059 -0.000048  0.000909 -0.009394  0.010514  0.012300
  3H   1py       -0.000158 -0.000014  0.000452  0.007365 -0.009088 -0.010731
  4O   1s         0.000043  0.000155  0.000089  0.139532 -0.081517  0.226805
  4O   2s         0.000408  0.001299  0.000869  0.284114 -0.170449  0.471024
  4O   3s        -0.000980 -0.003065 -0.002428  0.163567 -0.083572  0.248734
  4O   1pz        0.000028 -0.000031  0.000036  0.019450 -0.008004  0.015939
  4O   1px       -0.000001 -0.000060  0.000023 -0.045779  0.022511 -0.072721
  4O   1py        0.000009 -0.000023 -0.000036  0.004397  0.003199 -0.011592
  4O   2pz       -0.001111 -0.001918 -0.000885  0.013848 -0.003145  0.009356
  4O   2px        0.000679  0.002592  0.000872 -0.009269  0.001395 -0.010261
  4O   2py       -0.001087 -0.001920 -0.000266  0.016068 -0.002867  0.007353
  4O   1dz2       0.000156  0.000020  0.000165 -0.000836  0.000061 -0.001739
  4O   1dxz       0.000093  0.000572  0.000255 -0.001956  0.000327 -0.001550
  4O   1dyz      -0.000420 -0.001068 -0.000252  0.003813 -0.001648  0.003220
  4O   1dx2y2     0.000275  0.000247 -0.000078 -0.000336  0.000214  0.000645
  4O   1dxy       0.000252  0.000370  0.000178 -0.000621 -0.000868  0.000923
  5H   1s         0.000212  0.001294  0.000782  0.079084 -0.048623  0.137586
  5H   2s        -0.000420  0.001183  0.001591  0.002125  0.001185 -0.006793
  5H   1pz        0.000025  0.000583  0.000333  0.003197 -0.001662  0.004709
  5H   1px       -0.000126 -0.000141 -0.000072  0.010204 -0.006374  0.017842
  5H   1py        0.000166  0.000698  0.000534  0.009381 -0.005427  0.015441
  6O   1s         0.000044 -0.000154  0.000089  0.139534  0.237176 -0.042806
  6O   2s         0.000409 -0.001402  0.000690  0.284117  0.493142 -0.087899
  6O   3s        -0.000982  0.003635 -0.001440  0.163571  0.257194 -0.051989
  6O   1pz        0.000012 -0.000024  0.000035  0.047763  0.074859 -0.015712
  6O   1px        0.000007  0.000040  0.000018  0.014516  0.006680 -0.001410
  6O   1py       -0.000026  0.000001  0.000067  0.001190  0.017740 -0.006769
  6O   2pz       -0.000885  0.002335 -0.001827  0.011221  0.011207 -0.004064
  6O   2px       -0.001128  0.001531 -0.001838  0.016675  0.009170 -0.002003
  6O   2py        0.000910 -0.000895  0.000615 -0.011487 -0.006052  0.000311
  6O   1dz2       0.000216  0.000126  0.000109  0.000520  0.001408 -0.000693
  6O   1dxz      -0.000290  0.000617 -0.000452  0.002225  0.001035 -0.000599
  6O   1dyz       0.000062 -0.000226  0.000331 -0.000490  0.000966 -0.000396
  6O   1dx2y2    -0.000252  0.000229 -0.000084  0.000650  0.000006 -0.000520
  6O   1dxy       0.000389 -0.000680  0.000750 -0.003700 -0.003927  0.000140
  7H   1s         0.000213 -0.001325  0.000730  0.079086  0.143465 -0.026684
  7H   2s        -0.000419 -0.001970  0.000229  0.002125 -0.006476  0.002371
  7H   1pz        0.000089 -0.000221  0.000163 -0.009238 -0.017094  0.003127
  7H   1px        0.000191 -0.000765  0.000317  0.006075  0.010167 -0.001935
  7H   1py       -0.000002  0.000615 -0.000329 -0.008950 -0.015319  0.002829
                     12        13        14        15        16        17   
                  -0.98175  -0.62022  -0.54879  -0.54879  -0.51182  -0.46578
                   2.00000   2.00000   2.00000   2.00000   2.00000   2.00000
                  --------  --------  --------  --------  --------  --------
  0P   1s        -0.010194 -0.049789 -0.000000  0.000000  0.021801 -0.000000
  0P   2s        -0.060719 -0.310302 -0.000000  0.000001  0.138507 -0.000000
  0P   3s        -0.086835 -0.493753 -0.000000  0.000003  0.235657 -0.000005
  0P   4s         0.011665 -0.035958 -0.000000 -0.000003 -0.001598  0.000011
  0P   1pz        0.066245 -0.029548 -0.034367  0.047231 -0.079639 -0.042969
  0P   1px       -0.033100  0.014764  0.028625  0.084175  0.039793 -0.092116
  0P   1py       -0.037482  0.016719 -0.086019  0.009141  0.045059  0.005403
  0P   2pz       -0.098222  0.046885  0.058223 -0.077889  0.137984  0.075749
  0P   2px        0.049078 -0.023426 -0.045847 -0.140739 -0.068948  0.157546
  0P   2py        0.055575 -0.026528  0.143392 -0.013372 -0.078071 -0.005249
  0P   3pz       -0.028269  0.040767  0.023596 -0.063806  0.089473  0.030272
  0P   3px        0.014127 -0.020374 -0.058692 -0.085310 -0.044701  0.120508
  0P   3py        0.015994 -0.023065  0.093537 -0.037429 -0.050625 -0.052919
  0P   1dz2      -0.028117  0.004146 -0.010628  0.015711  0.009700  0.023837
  0P   1dxz       0.034029 -0.005016  0.024730  0.034283 -0.011740  0.044624
  0P   1dyz       0.038535 -0.005682 -0.007503 -0.028085 -0.013294 -0.005298
  0P   1dx2y2     0.002400 -0.000353 -0.011410  0.016021 -0.000828 -0.007379
  0P   1dxy      -0.019254  0.002838  0.042789 -0.016564  0.006644  0.032534
  1O   1s        -0.258858  0.072150  0.000001 -0.000000 -0.090198  0.000000
  1O   2s        -0.538620  0.161037  0.000001 -0.000001 -0.189199  0.000002
  1O   3s        -0.302430  0.106823  0.000002  0.000003 -0.226322 -0.000004
  1O   1pz        0.084388  0.102768  0.013798 -0.033598 -0.314194  0.080007
  1O   1px       -0.042163 -0.051350 -0.029704 -0.046627  0.156991  0.212582
  1O   1py       -0.047748 -0.058146  0.050613 -0.018203  0.177774 -0.046329
  1O   2pz        0.025738  0.054818  0.007543 -0.014949 -0.162204  0.051526
  1O   2px       -0.012861 -0.027389 -0.011984 -0.022491  0.081046  0.128707
  1O   2py       -0.014563 -0.031016  0.023912 -0.006555  0.091777 -0.022598
  1O   1dz2      -0.004059 -0.003192 -0.002075  0.003521  0.005306 -0.005077
  1O   1dxz       0.004912  0.003863  0.002041  0.002558 -0.006421 -0.005547
  1O   1dyz       0.005563  0.004375 -0.002525 -0.000618 -0.007271  0.003083
  1O   1dx2y2     0.000347  0.000272 -0.002830 -0.001051 -0.000453  0.004299
  1O   1dxy      -0.002779 -0.002186  0.001231 -0.001987  0.003633  0.004316
  2O   1s         0.086593  0.029905  0.036448 -0.006424 -0.041080 -0.042447
  2O   2s         0.181604  0.071684  0.077571 -0.013346 -0.092090 -0.091738
  2O   3s         0.093058  0.012889  0.109607 -0.028867 -0.085154 -0.095569
  2O   1pz        0.005797  0.144976 -0.161631  0.162525  0.150841 -0.013257
  2O   1px        0.009784  0.209425 -0.278959  0.245371  0.059144 -0.153700
  2O   1py       -0.021632  0.024984  0.132220 -0.015282 -0.153859 -0.320760
  2O   2pz       -0.001484  0.065052 -0.071349  0.073949  0.075320 -0.001662
  2O   2px        0.000182  0.101769 -0.134320  0.111498  0.019583 -0.094321
  2O   2py       -0.002155  0.032671  0.056202  0.006892 -0.082875 -0.190519
  2O   1dz2       0.000072  0.002188 -0.000207  0.001893 -0.002569 -0.004369
  2O   1dxz       0.001835 -0.001233 -0.000507  0.000824 -0.000935 -0.000930
  2O   1dyz       0.000089 -0.005288  0.003234 -0.004785 -0.004749 -0.000714
  2O   1dx2y2    -0.000184 -0.000429  0.005266  0.000063 -0.002774 -0.007099
  2O   1dxy      -0.000886 -0.007900  0.006472 -0.007428  0.000053  0.005515
  3H   1s         0.053069  0.138129 -0.197961  0.160002  0.112826  0.031421
  3H   2s        -0.002684  0.012823 -0.034884  0.035450  0.016716 -0.006037
  3H   1pz       -0.005158 -0.007513  0.012887 -0.008488 -0.004461 -0.003122
  3H   1px       -0.005274 -0.007573  0.011618 -0.008207 -0.009966 -0.010447
  3H   1py        0.005244  0.014166 -0.012316  0.013570  0.003452 -0.010303
  4O   1s         0.086594  0.029905 -0.023786 -0.028352 -0.041081 -0.019684
  4O   2s         0.181607  0.071683 -0.050342 -0.060504 -0.092092 -0.039027
  4O   3s         0.093057  0.012887 -0.079800 -0.080485 -0.085157 -0.080790
  4O   1pz       -0.001632 -0.120734 -0.189286 -0.055657  0.047383  0.022624
  4O   1px       -0.023855 -0.043253 -0.187426 -0.138886 -0.176401 -0.064663
  4O   1py       -0.005058 -0.221481 -0.329109 -0.081343 -0.128694 -0.115423
  4O   2pz       -0.000413 -0.065137 -0.092453 -0.031130  0.033483  0.010558
  4O   2px       -0.001991 -0.000815 -0.072688 -0.068081 -0.091297 -0.028905
  4O   2py        0.001657 -0.106829 -0.152990 -0.037378 -0.058898 -0.065387
  4O   1dz2      -0.001660 -0.001341 -0.004545 -0.003214  0.000152  0.000858
  4O   1dxz       0.000574  0.003515  0.003728 -0.000557 -0.003136  0.000311
  4O   1dyz       0.000735 -0.004812 -0.004417 -0.001463 -0.000043  0.000537
  4O   1dx2y2    -0.000328  0.003151  0.004459  0.003526  0.004632  0.000361
  4O   1dxy       0.000686  0.007045  0.007959 -0.000446  0.002533  0.003654
  5H   1s         0.053070  0.138129  0.237542  0.091438  0.112830  0.070293
  5H   2s        -0.002683  0.012827  0.048145  0.012483  0.016721  0.018151
  5H   1pz        0.001206  0.000389  0.001436  0.001266  0.005949  0.002140
  5H   1px        0.006866  0.016248  0.021786  0.005885  0.006310  0.006335
  5H   1py        0.005774  0.007096  0.014185  0.007883  0.007479  0.002647
  6O   1s         0.086593  0.029905 -0.012660  0.034776 -0.041081  0.062130
  6O   2s         0.181603  0.071685 -0.027226  0.073848 -0.092091  0.130762
  6O   3s         0.093059  0.012884 -0.029804  0.109356 -0.085154  0.176352
  6O   1pz        0.020963  0.025821  0.025850 -0.177549  0.199930 -0.380441
  6O   1px        0.001515 -0.191191  0.093412  0.235964 -0.081693 -0.090744
  6O   1py        0.012473  0.168165 -0.048228 -0.330687  0.057261  0.053336
  6O   2pz        0.001218 -0.008102  0.019802 -0.070204  0.106051 -0.218872
  6O   2px        0.002149 -0.096865  0.046670  0.111730 -0.035642 -0.050109
  6O   2py        0.000882  0.078791 -0.016110 -0.154913  0.020201  0.037870
  6O   1dz2      -0.000195  0.002610  0.000788 -0.005175  0.005744 -0.007738
  6O   1dxz      -0.000252 -0.006467  0.004331  0.004720  0.000044 -0.004045
  6O   1dyz       0.001618  0.005361 -0.001743 -0.008711  0.000232  0.001945
  6O   1dx2y2     0.000664 -0.003017  0.001971  0.001162 -0.002142  0.000381
  6O   1dxy      -0.001020  0.003223  0.000307 -0.003168 -0.000307  0.001758
  7H   1s         0.053069  0.138128 -0.039586 -0.251439  0.112828 -0.101715
  7H   2s        -0.002684  0.012824 -0.013262 -0.047937  0.016718 -0.012112
  7H   1pz       -0.006541 -0.015320  0.005259  0.021256 -0.004230 -0.003564
  7H   1px        0.003651  0.002541  0.001227 -0.009735  0.005027 -0.010485
  7H   1py       -0.005080 -0.008563  0.002157  0.013995 -0.009380  0.012511
                     18        19        20        21        22        23   
                  -0.46578  -0.44550  -0.40872  -0.40872  -0.39738  -0.37653
                   2.00000   2.00000   2.00000   2.00000   2.00000   2.00000
                  --------  --------  --------  --------  --------  --------
  0P   1s        -0.000000 -0.006754  0.000000 -0.000000 -0.002979 -0.000000
  0P   2s        -0.000001 -0.042548  0.000001 -0.000002 -0.019190 -0.000001
  0P   3s         0.000002 -0.060158  0.000004 -0.000005 -0.036712 -0.000005
  0P   4s        -0.000013 -0.052710 -0.000005  0.000003  0.019559  0.000012
  0P   1pz        0.043752 -0.073116 -0.000171 -0.002239 -0.000725 -0.003300
  0P   1px       -0.015090  0.036533 -0.002938 -0.001750  0.000363  0.001449
  0P   1py        0.090659  0.041365  0.002290 -0.002414  0.000410 -0.007111
  0P   2pz       -0.073237  0.133754  0.003896  0.005881 -0.006807  0.005208
  0P   2px        0.030013 -0.066829  0.010738  0.000307  0.003400 -0.001685
  0P   2py       -0.155957 -0.075671 -0.002591  0.010125  0.003852  0.010693
  0P   3pz       -0.075516  0.028026 -0.039820 -0.021713  0.089965  0.010019
  0P   3px       -0.028557 -0.014012 -0.061933  0.030510 -0.044953 -0.019305
  0P   3py       -0.108245 -0.015856 -0.015692 -0.065317 -0.050900  0.034741
  0P   1dz2      -0.020048  0.030219  0.016013 -0.072173 -0.030961 -0.010198
  0P   1dxz      -0.014149 -0.036571 -0.025953  0.000703  0.037479 -0.042928
  0P   1dyz       0.013579 -0.041414  0.053626 -0.040212  0.042440  0.031439
  0P   1dx2y2    -0.047567 -0.002577  0.056039  0.034914  0.002639  0.002427
  0P   1dxy       0.025524  0.020691  0.045050  0.030495 -0.021211  0.002244
  1O   1s        -0.000001 -0.034337 -0.000000  0.000001  0.001127 -0.000001
  1O   2s        -0.000003 -0.067453 -0.000002  0.000001  0.002188 -0.000002
  1O   3s        -0.000000 -0.093154  0.000002  0.000004 -0.027119 -0.000006
  1O   1pz       -0.114487 -0.288509 -0.015016 -0.192902  0.145436 -0.021674
  1O   1px       -0.000835  0.144158 -0.253187 -0.150478 -0.072621 -0.406338
  1O   1py       -0.201569  0.163252  0.197030 -0.208077 -0.082254  0.320523
  1O   2pz       -0.067144 -0.160495 -0.003143 -0.124858  0.090585 -0.015781
  1O   2px        0.005236  0.080194 -0.158108 -0.105580 -0.045230 -0.261694
  1O   2py       -0.123270  0.090817  0.134059 -0.127449 -0.051231  0.203204
  1O   1dz2       0.006560  0.003719  0.000502  0.006984 -0.001940  0.000654
  1O   1dxz      -0.002750 -0.004501  0.005787  0.001328  0.002346  0.007489
  1O   1dyz       0.005356 -0.005098 -0.004621  0.001501  0.002657 -0.006270
  1O   1dx2y2     0.003637 -0.000318 -0.004603  0.001258  0.000166 -0.008512
  1O   1dxy      -0.003265  0.002547 -0.000328 -0.004691 -0.001327 -0.001332
  2O   1s         0.047237  0.042360 -0.001515 -0.004226  0.005879 -0.005513
  2O   2s         0.098034  0.091263 -0.006032 -0.008101  0.013386 -0.012901
  2O   3s         0.148456  0.108545  0.029729 -0.002886  0.022524 -0.012141
  2O   1pz       -0.128781  0.010816 -0.070629 -0.361236  0.273119  0.013169
  2O   1px        0.035792 -0.001437 -0.056430  0.138375 -0.251818  0.007663
  2O   1py        0.236218  0.296238 -0.135747 -0.213633  0.046671 -0.040050
  2O   2pz       -0.074369  0.018057 -0.040450 -0.238747  0.174091  0.006113
  2O   2px        0.024534  0.004458 -0.031139  0.091317 -0.160386  0.006538
  2O   2py        0.129819  0.173328 -0.100851 -0.131724  0.029555 -0.026192
  2O   1dz2       0.002889  0.002423 -0.001362 -0.003141  0.000985 -0.000361
  2O   1dxz      -0.000111 -0.002320 -0.000681  0.001670 -0.002187  0.000486
  2O   1dyz       0.003978 -0.000138  0.000929  0.006572 -0.004591 -0.000257
  2O   1dx2y2     0.002088  0.005050 -0.002742 -0.004764  0.000895 -0.000104
  2O   1dxy      -0.001717  0.000626  0.000896 -0.002983  0.004401 -0.000758
  3H   1s        -0.099309 -0.091603 -0.011133  0.007808 -0.020650  0.017597
  3H   2s        -0.017473 -0.009756 -0.010605 -0.010353 -0.005893 -0.004593
  3H   1pz        0.004017  0.007383 -0.001694 -0.014817  0.010987 -0.001315
  3H   1px        0.011377  0.008248 -0.000670  0.005237 -0.007752  0.000698
  3H   1py       -0.000008  0.002728 -0.005456 -0.007041 -0.000396  0.001205
  4O   1s        -0.060376  0.042365 -0.002902  0.003425  0.005878 -0.000801
  4O   2s        -0.128458  0.091274 -0.004001  0.009274  0.013385 -0.000740
  4O   3s        -0.156983  0.108554 -0.017358 -0.024308  0.022515  0.006087
  4O   1pz        0.232562 -0.051689 -0.232139  0.084014  0.334021  0.301238
  4O   1px       -0.345667  0.284258 -0.127359  0.200150  0.087092 -0.008362
  4O   1py        0.093537 -0.066479  0.206289 -0.249239 -0.144991 -0.104491
  4O   2pz        0.142778 -0.029506 -0.154752  0.056677  0.212832  0.198985
  4O   2px       -0.199534  0.163922 -0.069831  0.138841  0.055293 -0.001085
  4O   2py        0.052508 -0.051521  0.137775 -0.158686 -0.092436 -0.069686
  4O   1dz2      -0.000902  0.004470 -0.004245  0.003440  0.003868  0.001315
  4O   1dxz      -0.008197  0.001480  0.003671 -0.000625 -0.005137 -0.004534
  4O   1dyz       0.002056 -0.001234  0.001236 -0.000671 -0.000943 -0.000555
  4O   1dx2y2     0.006152 -0.003506  0.001795 -0.003329 -0.000637  0.000205
  4O   1dxy      -0.002845  0.001091 -0.003900  0.004873  0.002084  0.002550
  5H   1s         0.076863 -0.091611  0.012327  0.005738 -0.020642  0.012330
  5H   2s         0.003508 -0.009761 -0.003667  0.014359 -0.005893 -0.009258
  5H   1pz        0.012393 -0.004334 -0.009032  0.004205  0.011816  0.010658
  5H   1px       -0.004314 -0.000171 -0.003478  0.007693  0.000698  0.001104
  5H   1py        0.012111 -0.010545  0.009222 -0.008606 -0.006392 -0.003091
  6O   1s         0.013144  0.042362  0.004417  0.000801  0.005878  0.006314
  6O   2s         0.030435  0.091267  0.010030 -0.001173  0.013383  0.013644
  6O   3s         0.008546  0.108546 -0.012360  0.027189  0.022522  0.006041
  6O   1pz       -0.116881 -0.257434 -0.057551  0.074133  0.104815 -0.205703
  6O   1px       -0.163262 -0.133748 -0.384932 -0.068373 -0.190990  0.120851
  6O   1py        0.064941 -0.060992 -0.205194 -0.134763 -0.304472  0.230529
  6O   2pz       -0.077085 -0.145740 -0.036865  0.063726  0.066970 -0.130620
  6O   2px       -0.093843 -0.089828 -0.249815 -0.045232 -0.121689  0.079876
  6O   2py        0.039759 -0.032878 -0.137336 -0.082139 -0.193911  0.152148
  6O   1dz2      -0.003498 -0.003521  0.000319  0.002054  0.003153 -0.004005
  6O   1dxz      -0.005272 -0.003240 -0.007193 -0.001034 -0.002364  0.002146
  6O   1dyz       0.001885 -0.003250 -0.004734 -0.002814 -0.005438  0.001965
  6O   1dx2y2    -0.002344 -0.001832 -0.002470 -0.000493 -0.000941  0.000385
  6O   1dxy      -0.000645  0.000593 -0.002265 -0.000196 -0.001003  0.001667
  7H   1s         0.022436 -0.091609 -0.001197 -0.013547 -0.020646 -0.029923
  7H   2s         0.013965 -0.009763  0.014265 -0.004005 -0.005900  0.013853
  7H   1pz       -0.007883  0.000234 -0.001225  0.004050  0.006025 -0.002774
  7H   1px       -0.005242 -0.009718 -0.014499 -0.003818 -0.007348  0.003729
  7H   1py        0.001361  0.005958 -0.008424 -0.004002 -0.009521  0.008613
                     24        25        26        27        28        29   
                  -0.37652  -0.10538  -0.00754  -0.00754   0.01340   0.04166
                   2.00000   0.00000   0.00000   0.00000   0.00000   0.00000
                  --------  --------  --------  --------  --------  --------
  0P   1s        -0.000000 -0.054843  0.000004 -0.000005  0.027712  0.032399
  0P   2s        -0.000001 -0.363864  0.000028 -0.000037  0.189163  0.221100
  0P   3s         0.000003 -0.603370  0.000083 -0.000094  0.473531  0.415697
  0P   4s        -0.000017 -0.665817 -0.000029 -0.000016  0.098787  0.626876
  0P   1pz        0.003491 -0.070932  0.048961 -0.075381  0.066219 -0.126253
  0P   1px        0.007166  0.035445  0.136704 -0.005184 -0.033096  0.063132
  0P   1py       -0.000158  0.040136 -0.034209 -0.128639 -0.037490  0.071422
  0P   2pz       -0.005028  0.134348 -0.094926  0.146061 -0.127932  0.237633
  0P   2px       -0.010885 -0.067130 -0.264920  0.009969  0.063947 -0.118831
  0P   2py        0.000729 -0.076016  0.066219  0.249317  0.072430 -0.134427
  0P   3pz       -0.022569  0.208307 -0.204714  0.283460 -0.351068  0.851833
  0P   3px       -0.032265 -0.104137 -0.532228 -0.006085  0.175379 -0.425908
  0P   3py       -0.011396 -0.117878  0.108290  0.506414  0.198728 -0.481938
  0P   1dz2      -0.027213 -0.011608  0.023288  0.004001  0.028880 -0.081005
  0P   1dxz       0.006159  0.014051 -0.010428 -0.052691 -0.034963  0.098020
  0P   1dyz      -0.002383  0.015909  0.062370  0.023072 -0.039579  0.111025
  0P   1dx2y2    -0.015189  0.000991 -0.034385 -0.058541 -0.002472  0.006898
  0P   1dxy       0.043947 -0.007950  0.068116 -0.060106  0.019768 -0.055444
  1O   1s         0.000000  0.039312  0.000001  0.000002  0.025334 -0.093752
  1O   2s        -0.000000  0.106024 -0.000000  0.000002  0.056385 -0.202576
  1O   3s         0.000008  0.095123  0.000027  0.000031  0.189195 -0.717497
  1O   1pz       -0.311318 -0.141050  0.053293 -0.105627  0.004278  0.241077
  1O   1px       -0.246038  0.070485  0.178131 -0.026305 -0.002150 -0.120417
  1O   1py       -0.332960  0.079814 -0.063128 -0.163413 -0.002436 -0.136416
  1O   2pz       -0.199218 -0.116246  0.053356 -0.088894 -0.040569  0.316206
  1O   2px       -0.155059  0.058097  0.157377 -0.011533  0.020271 -0.157946
  1O   2py       -0.215165  0.065779 -0.044669 -0.146871  0.022933 -0.178917
  1O   1dz2       0.011123  0.001087  0.004096 -0.007109  0.002690  0.000922
  1O   1dxz       0.002275 -0.001316  0.004732  0.000650 -0.003256 -0.001111
  1O   1dyz       0.003373 -0.001490 -0.002201 -0.004702 -0.003688 -0.001262
  1O   1dx2y2     0.001204 -0.000093 -0.005988 -0.003404 -0.000230 -0.000080
  1O   1dxy      -0.005323  0.000745 -0.002766  0.001696  0.001843  0.000630
  2O   1s        -0.004106  0.077736  0.052332 -0.071823  0.021401  0.010187
  2O   2s        -0.008302  0.178860  0.111040 -0.159955  0.038769  0.017453
  2O   3s         0.000032  0.351271  0.397233 -0.456012  0.238058  0.138265
  2O   1pz        0.273798 -0.115742  0.021196 -0.086981  0.190547 -0.086457
  2O   1px       -0.244363 -0.147509  0.070228  0.047463  0.151947  0.144523
  2O   1py       -0.076912 -0.194866 -0.216146  0.078646 -0.031339  0.044925
  2O   2pz        0.179606 -0.088306  0.039153 -0.092206  0.203624 -0.061971
  2O   2px       -0.161583 -0.121026  0.045962  0.016935  0.181220  0.138576
  2O   2py       -0.045580 -0.182945 -0.201929  0.124310 -0.065345  0.016863
  2O   1dz2       0.000541 -0.003015 -0.000090 -0.003446  0.002985 -0.011118
  2O   1dxz      -0.000193 -0.006780 -0.000261  0.004906  0.005733 -0.010892
  2O   1dyz      -0.005336 -0.002959 -0.004076 -0.003091  0.004673 -0.001550
  2O   1dx2y2    -0.000745 -0.004529  0.005966  0.010854  0.000289  0.000064
  2O   1dxy       0.002831 -0.000188 -0.005547 -0.001981  0.005588  0.007348
  3H   1s         0.024390 -0.078173 -0.061411  0.173842 -0.135187 -0.113730
  3H   2s        -0.013342 -0.195348 -0.473586  0.493240 -0.635145 -0.256967
  3H   1pz        0.007901 -0.004576 -0.006865  0.002328  0.001444 -0.007894
  3H   1px       -0.009116 -0.005892 -0.001445  0.012352 -0.001539 -0.002420
  3H   1py        0.000209 -0.006782  0.011001  0.003489  0.012905 -0.007952
  4O   1s         0.006828  0.077734  0.036034  0.081235  0.021419  0.010201
  4O   2s         0.015322  0.178859  0.083000  0.176160  0.038812  0.017485
  4O   3s         0.010519  0.351231  0.196328  0.571942  0.238149  0.138351
  4O   1pz       -0.182172  0.113451  0.087888  0.040232 -0.039032 -0.173668
  4O   1px        0.052911 -0.138761  0.052752 -0.232785 -0.086340  0.012885
  4O   1py        0.068546  0.202478 -0.033021 -0.026400 -0.226730  0.006985
  4O   2pz       -0.117433  0.100616  0.061483  0.055558 -0.051854 -0.151871
  4O   2px        0.032283 -0.136586 -0.001799 -0.242934 -0.127803 -0.014657
  4O   2py        0.043797  0.164710 -0.036252 -0.038027 -0.244045 -0.006768
  4O   1dz2      -0.000167  0.002808 -0.004839  0.000549 -0.003392  0.011997
  4O   1dxz       0.002112 -0.002573 -0.006535  0.001986 -0.002592 -0.005205
  4O   1dyz      -0.000011 -0.003592 -0.007030 -0.003910  0.003115  0.003209
  4O   1dx2y2    -0.000629  0.007478  0.002868  0.001738 -0.007216  0.009223
  4O   1dxy      -0.002089 -0.001024 -0.009902  0.002430 -0.003863 -0.005687
  5H   1s        -0.027439 -0.078173 -0.119833 -0.140086 -0.135218 -0.113811
  5H   2s         0.010645 -0.195312 -0.190350 -0.656598 -0.635250 -0.257150
  5H   1pz       -0.004489  0.004358  0.010971  0.001694 -0.000524  0.000065
  5H   1px       -0.001895 -0.004582 -0.005706  0.010040  0.012687 -0.006333
  5H   1py        0.001048  0.007851  0.004598  0.007920 -0.003133  0.009562
  6O   1s        -0.002720  0.077734 -0.088365 -0.009411  0.021421  0.010193
  6O   2s        -0.007019  0.178861 -0.194043 -0.016187  0.038817  0.017468
  6O   3s        -0.010534  0.351226 -0.593501 -0.116023  0.238164  0.138308
  6O   1pz       -0.071624  0.132664 -0.195752 -0.112257  0.101481 -0.091658
  6O   1px        0.073716  0.221136 -0.001174 -0.061976 -0.192056  0.018289
  6O   1py        0.147598 -0.081381 -0.011620 -0.114898  0.114959  0.147183
  6O   2pz       -0.046053  0.132306 -0.229410 -0.090139  0.135048 -0.055117
  6O   2px        0.050739  0.185351  0.000642 -0.045433 -0.196768  0.010360
  6O   2py        0.099582 -0.063584 -0.029013 -0.070660  0.147169  0.142174
  6O   1dz2      -0.002099  0.006124 -0.003479  0.004165 -0.003673  0.004856
  6O   1dxz       0.001136  0.002192 -0.000512  0.007062  0.001799  0.009157
  6O   1dyz       0.002191 -0.001558 -0.000130 -0.002997 -0.002198 -0.009527
  6O   1dx2y2    -0.000100 -0.003454 -0.003095  0.008849  0.007278 -0.009772
  6O   1dxy       0.000676  0.005263 -0.006969  0.005025 -0.004518  0.002261
  7H   1s         0.003043 -0.078175  0.181234 -0.033724 -0.135258 -0.113845
  7H   2s         0.002698 -0.195345  0.663788  0.163528 -0.635380 -0.257368
  7H   1pz       -0.003596  0.004433  0.003692  0.012592 -0.010645  0.003660
  7H   1px        0.002675  0.008370 -0.006675  0.001880 -0.006283  0.010841
  7H   1py        0.005774 -0.003454  0.010392 -0.003480 -0.004268  0.000755
                     30        31        32        33        34        35   
                   0.04626   0.04626   0.26913   0.40744   0.40745   0.48976
                   0.00000   0.00000   0.00000   0.00000   0.00000   0.00000
                  --------  --------  --------  --------  --------  --------
  0P   1s        -0.000006 -0.000007  0.051467 -0.000001  0.000000  0.000040
  0P   2s        -0.000039 -0.000049  0.380179 -0.000004  0.000004 -0.004153
  0P   3s        -0.000061 -0.000090  2.207443 -0.000024  0.000029 -0.237154
  0P   4s        -0.000157 -0.000149 -3.617497  0.000044 -0.000067  0.855428
  0P   1pz       -0.041211  0.101807  0.009811  0.040799  0.058555  0.058646
  0P   1px        0.090461  0.140533 -0.004918 -0.037092  0.102122 -0.029911
  0P   1py       -0.152767  0.055759 -0.005557  0.104856  0.013320 -0.033265
  0P   2pz        0.081960 -0.200127 -0.044162 -0.169672 -0.192696 -0.210608
  0P   2px       -0.176988 -0.277433  0.022118  0.091021 -0.380127  0.107524
  0P   2py        0.301242 -0.108569  0.025009 -0.380228 -0.004930  0.119505
  0P   3pz        0.213276 -0.543853 -0.095842  0.363063  0.097344  0.618186
  0P   3px       -0.489241 -0.742159  0.047838  0.197133  0.537155 -0.312282
  0P   3py        0.809285 -0.305339  0.054200  0.467529 -0.302188 -0.350306
  0P   1dz2      -0.003776 -0.016878 -0.032374 -0.108131 -0.504280  0.103284
  0P   1dxz      -0.090248  0.031697  0.039188  0.074171 -0.296377 -0.125988
  0P   1dyz       0.080733  0.023008  0.044370 -0.105561 -0.158962 -0.142518
  0P   1dx2y2    -0.054555 -0.015213  0.002763 -0.595732  0.082235 -0.008912
  0P   1dxy       0.000875  0.124926 -0.022179  0.003494 -0.095323  0.071356
  1O   1s         0.000013  0.000018  0.043906 -0.000001  0.000001 -0.014368
  1O   2s         0.000027  0.000038  0.081557 -0.000001 -0.000001  0.004827
  1O   3s         0.000111  0.000149  0.669846 -0.000018  0.000042 -0.575344
  1O   1pz       -0.016439  0.088701  0.085854  0.042649  0.113570 -0.050737
  1O   1px        0.096043  0.098255 -0.042905 -0.103889  0.152646  0.025787
  1O   1py       -0.113765  0.070132 -0.048566  0.167127  0.065906  0.028875
  1O   2pz       -0.034433  0.103702 -0.148493 -0.045297 -0.009010  0.215628
  1O   2px        0.098966  0.133808  0.074205 -0.028526 -0.064251 -0.107518
  1O   2py       -0.148120  0.065299  0.084013 -0.054880  0.040852 -0.121927
  1O   1dz2      -0.002737  0.011568  0.013727  0.008370  0.019960 -0.008435
  1O   1dxz       0.005648  0.007133 -0.016615 -0.021856  0.006898  0.010218
  1O   1dyz      -0.004955  0.000770 -0.018814  0.022986 -0.004280  0.011592
  1O   1dx2y2    -0.011041 -0.000240 -0.001172  0.007108 -0.002888  0.000733
  1O   1dxy       0.002686 -0.002778  0.009401 -0.003965 -0.025878 -0.005789
  2O   1s        -0.014442 -0.004331  0.009783 -0.024567  0.009144 -0.016952
  2O   2s        -0.029631 -0.003189 -0.001158 -0.061478  0.041168 -0.065546
  2O   3s        -0.097074 -0.070581  0.318571 -0.141768 -0.067633  0.170899
  2O   1pz       -0.019300 -0.145955 -0.057409 -0.091751  0.130536 -0.120678
  2O   1px        0.097938 -0.262499 -0.038489  0.016127 -0.131346 -0.050015
  2O   1py       -0.074655 -0.026955  0.069813 -0.044225 -0.000381  0.239831
  2O   2pz       -0.020865 -0.195393 -0.085491 -0.061503 -0.109564 -0.063179
  2O   2px        0.108167 -0.344500 -0.187932 -0.054669 -0.085439 -0.050163
  2O   2py       -0.057323 -0.022410 -0.081418  0.124393  0.086326 -0.079102
  2O   1dz2      -0.001972  0.005440 -0.010287 -0.000660  0.014675 -0.001454
  2O   1dxz       0.004078  0.003435  0.016030  0.025283  0.017587  0.034029
  2O   1dyz      -0.004376 -0.006301  0.004977 -0.030960  0.002815 -0.029738
  2O   1dx2y2     0.014834  0.002539  0.006504  0.017793 -0.009788  0.000291
  2O   1dxy      -0.003768 -0.010781  0.014129 -0.036229 -0.031835 -0.032262
  3H   1s         0.055371  0.215846  0.036463  0.610956  0.316846  0.655767
  3H   2s        -0.017409  0.842535  0.526815 -0.522034 -0.312594 -0.746936
  3H   1pz        0.000322  0.007381  0.012915  0.015478  0.000130  0.059091
  3H   1px        0.010200  0.005024  0.032896  0.025750 -0.007589  0.045593
  3H   1py        0.014731 -0.003254  0.021683 -0.007171 -0.009248 -0.063959
  4O   1s         0.003460  0.014662  0.009787  0.004362 -0.025840 -0.016829
  4O   2s         0.012025  0.027233 -0.001149 -0.004928 -0.073795 -0.064991
  4O   3s        -0.012620  0.119262  0.318562  0.129499 -0.089005  0.170126
  4O   1pz        0.184069 -0.014645 -0.006352 -0.126771 -0.127650 -0.058470
  4O   1px        0.095782  0.055241  0.082122 -0.000236 -0.044983  0.254300
  4O   1py        0.217089 -0.114161  0.053509  0.010656  0.102084  0.081540
  4O   2pz        0.231969 -0.027313  0.140172 -0.004016 -0.007902  0.030408
  4O   2px        0.114765  0.027997 -0.021759 -0.169015  0.063149 -0.057053
  4O   2py        0.287317 -0.147431  0.170681 -0.127397 -0.011939  0.092524
  4O   1dz2      -0.006638 -0.003501 -0.001624  0.032586  0.004917 -0.027727
  4O   1dxz       0.001762 -0.009180 -0.006120 -0.027982  0.007666  0.010482
  4O   1dyz      -0.007297 -0.004196  0.022547  0.004975  0.013487  0.010117
  4O   1dx2y2     0.001749  0.004892 -0.007903 -0.000227  0.002972  0.007294
  4O   1dxy       0.004827 -0.014585 -0.004296 -0.036297  0.037520  0.045314
  5H   1s         0.159280 -0.155789  0.036432 -0.579858  0.370610  0.656183
  5H   2s         0.738464 -0.405977  0.526802  0.531700 -0.295738 -0.748018
  5H   1pz        0.005476  0.010219 -0.026921 -0.000369 -0.016276 -0.000075
  5H   1px       -0.010135 -0.007392  0.011135  0.013466 -0.009490 -0.078638
  5H   1py       -0.003231  0.010451 -0.029501  0.007355 -0.022491 -0.058953
  6O   1s         0.010966 -0.010342  0.009788  0.020200  0.016701 -0.016835
  6O   2s         0.017567 -0.024068 -0.001139  0.066386  0.032647 -0.064982
  6O   3s         0.109596 -0.048801  0.318540  0.012295  0.156617  0.169100
  6O   1pz       -0.007151  0.052340 -0.084675  0.063611 -0.032108 -0.263078
  6O   1px       -0.190327 -0.083811  0.030539 -0.115345 -0.042056  0.017423
  6O   1py        0.133044  0.206642 -0.039346 -0.152366  0.039457 -0.071095
  6O   2pz        0.018163  0.047382  0.049428 -0.036329  0.175147  0.045262
  6O   2px       -0.240113 -0.122504  0.157660  0.062608 -0.053857  0.100788
  6O   2py        0.190324  0.247534 -0.148152 -0.034760  0.094771 -0.020290
  6O   1dz2       0.003662 -0.006357 -0.005137 -0.004716 -0.001044  0.014345
  6O   1dxz       0.013564 -0.000905  0.010724  0.004856  0.037029 -0.026491
  6O   1dyz      -0.007972 -0.003273 -0.004160  0.013011 -0.047574  0.040064
  6O   1dx2y2     0.006234 -0.007333  0.002855  0.020877  0.010664 -0.006300
  6O   1dxy       0.003983 -0.007493 -0.021506  0.015429  0.015199 -0.023079
  7H   1s        -0.214542 -0.059951  0.036437 -0.031057 -0.687527  0.655654
  7H   2s        -0.720773 -0.436313  0.526815 -0.009725  0.608412 -0.747685
  7H   1pz        0.001861 -0.014847 -0.016171  0.002126 -0.014136  0.079794
  7H   1px        0.010073 -0.004749 -0.028948  0.013569  0.011972 -0.036099
  7H   1py       -0.006922  0.003952  0.024893 -0.016347 -0.017261  0.044559
                     36        37        38        39        40        41   
                   0.49196   0.49197   0.49420   0.51722   0.51722   0.70152
                   0.00000   0.00000   0.00000   0.00000   0.00000   0.00000
                  --------  --------  --------  --------  --------  --------
  0P   1s        -0.000000 -0.000000  0.003970  0.000000 -0.000001 -0.015590
  0P   2s        -0.000008 -0.000001  0.024514  0.000002 -0.000004 -0.126724
  0P   3s        -0.000393  0.000088 -0.042730 -0.000009  0.000009 -0.714981
  0P   4s         0.001445 -0.000389  0.189493  0.000059 -0.000083  0.292230
  0P   1pz        0.073276 -0.158039 -0.253036  0.013210 -0.044087  0.116223
  0P   1px        0.260613 -0.047508  0.126493  0.066361 -0.022209 -0.058075
  0P   1py       -0.101031 -0.237180  0.143208 -0.035284 -0.058266 -0.065762
  0P   2pz       -0.284832  0.592999  0.897574 -0.042334  0.143810 -0.498386
  0P   2px       -0.986589  0.165947 -0.448714 -0.215772  0.073374  0.249036
  0P   2py        0.369243  0.900858 -0.508000  0.115823  0.189224  0.282006
  0P   3pz        0.420645 -0.882143 -1.162966  0.116128 -0.098342 -0.157186
  0P   3px        1.464072 -0.251147  0.581440  0.223712  0.058347  0.078524
  0P   3py       -0.552971 -1.335936  0.658230  0.007453 -0.225014  0.088857
  0P   1dz2       0.323918 -0.076417 -0.123761 -0.336089 -0.155057 -0.327967
  0P   1dxz       0.170645  0.185083  0.149872 -0.082447 -0.322009  0.396903
  0P   1dyz       0.022158 -0.174429  0.169733 -0.073190  0.126138  0.449547
  0P   1dx2y2    -0.014304 -0.278491  0.010593 -0.237160  0.250526  0.027973
  0P   1dxy      -0.127444  0.054385 -0.084820  0.169145 -0.059102 -0.224607
  1O   1s        -0.000024  0.000009  0.011628  0.000001  0.000003  0.185852
  1O   2s         0.000018  0.000001  0.043340  0.000012  0.000003  0.740126
  1O   3s        -0.001103  0.000373  0.529578 -0.000075  0.000083 -0.088485
  1O   1pz       -0.085231  0.087891  0.244175  0.061697  0.086442  0.245167
  1O   1px       -0.183866 -0.028907 -0.122050 -0.053406  0.152535 -0.122503
  1O   1py        0.012084  0.180700 -0.138179  0.156218  0.018041 -0.138711
  1O   2pz       -0.035223  0.053492 -0.187694 -0.012136 -0.031350 -0.928904
  1O   2px       -0.098169  0.002776  0.093764  0.028308 -0.042582  0.464146
  1O   2py        0.023305  0.092479  0.106167 -0.046510 -0.017718  0.525576
  1O   1dz2      -0.010694 -0.006738  0.026090  0.019693  0.001349 -0.020296
  1O   1dxz       0.002470 -0.007477 -0.031576  0.001839  0.013344  0.024562
  1O   1dyz      -0.007934  0.003979 -0.035759  0.007381 -0.012430  0.027812
  1O   1dx2y2    -0.004930  0.008347 -0.002229  0.000899 -0.014137  0.001729
  1O   1dxy       0.003358  0.005683  0.017867 -0.010633 -0.005013 -0.013898
  2O   1s         0.038159 -0.011899 -0.027933  0.030271 -0.011304 -0.039969
  2O   2s         0.170608 -0.067015 -0.098830  0.162994 -0.050521 -0.174834
  2O   3s        -0.290313  0.447484 -0.093140 -0.411967  0.180641  0.125347
  2O   1pz       -0.088777  0.084379  0.036411  0.218047  0.063921 -0.052614
  2O   1px       -0.036625  0.062769 -0.112214  0.072083 -0.135919  0.061600
  2O   1py        0.077731  0.151128  0.013371 -0.275407  0.230993  0.039280
  2O   2pz        0.016190 -0.067840  0.095314 -0.061170 -0.054249  0.106599
  2O   2px       -0.049703 -0.206653  0.085654  0.074276  0.036414  0.059050
  2O   2py        0.106095 -0.090612  0.044011  0.192209 -0.133467  0.030063
  2O   1dz2       0.000192 -0.015727 -0.002521  0.014288  0.000498 -0.014201
  2O   1dxz      -0.023230  0.033242 -0.002149 -0.022529  0.028463 -0.003340
  2O   1dyz      -0.023996  0.003133 -0.022590  0.037302 -0.002782 -0.003298
  2O   1dx2y2    -0.009905  0.017532 -0.003025  0.010959 -0.006320 -0.001170
  2O   1dxy      -0.020043  0.023662 -0.021602  0.028379 -0.015515  0.001332
  3H   1s         0.163614  0.130464  0.235082 -0.604777  0.333710  0.017589
  3H   2s        -0.416238  0.004237 -0.241367  0.664656 -0.380789 -0.161214
  3H   1pz       -0.026528  0.007857  0.000757 -0.062356  0.044549 -0.006543
  3H   1px       -0.046590  0.037474  0.021840 -0.068164  0.050801 -0.001283
  3H   1py       -0.075206  0.018774 -0.030233  0.093221 -0.037858 -0.039252
  4O   1s        -0.008802  0.039021 -0.027948 -0.005349  0.031872 -0.039983
  4O   2s        -0.027368  0.181349 -0.098897 -0.037757  0.166431 -0.174891
  4O   3s        -0.242049 -0.475538 -0.092995  0.049630 -0.447159  0.125352
  4O   1pz        0.051233  0.002340  0.111441 -0.133652  0.027376 -0.085141
  4O   1px       -0.150764  0.018306  0.039047 -0.067053 -0.388018  0.026196
  4O   1py        0.073713  0.133513  0.012367  0.123339 -0.125198  0.013053
  4O   2pz       -0.158852 -0.057381 -0.039566  0.091201 -0.097380 -0.008635
  4O   2px       -0.033357  0.112112  0.011630  0.029960  0.214387  0.004286
  4O   2py       -0.135449 -0.094749 -0.129046 -0.043565 -0.041827 -0.125192
  4O   1dz2      -0.001690  0.007833 -0.002797  0.012878  0.032998  0.005139
  4O   1dxz       0.008043  0.006573  0.005671 -0.005694 -0.004116 -0.001916
  4O   1dyz      -0.024548 -0.041763 -0.007788 -0.003994 -0.012869  0.007669
  4O   1dx2y2     0.003138  0.031516  0.016902  0.014184 -0.021993  0.011713
  4O   1dxy      -0.009800  0.014974  0.024700  0.009238 -0.043281 -0.000842
  5H   1s        -0.193500  0.075085  0.235066  0.013427 -0.690801  0.017606
  5H   2s         0.202936 -0.361005 -0.241255 -0.002578  0.766171 -0.161270
  5H   1pz        0.006733  0.053614 -0.012739  0.007929  0.019130  0.005807
  5H   1px        0.022200 -0.053716 -0.034825 -0.010062  0.124476 -0.036842
  5H   1py       -0.006132  0.063312 -0.004025  0.013404  0.083820  0.013955
  6O   1s        -0.029429 -0.027108 -0.027943 -0.024925 -0.020570 -0.039968
  6O   2s        -0.143525 -0.114279 -0.098881 -0.125248 -0.115925 -0.174834
  6O   3s         0.533324  0.027728 -0.092943  0.362417  0.266476  0.125341
  6O   1pz       -0.035167  0.142239  0.014398 -0.310501 -0.209996 -0.064081
  6O   1px       -0.159721  0.029934 -0.007972 -0.055363  0.138526  0.013061
  6O   1py        0.028852  0.021241 -0.117578 -0.202893  0.024586  0.061865
  6O   2pz        0.099571  0.037688 -0.002934  0.180594  0.131976  0.016821
  6O   2px        0.154115 -0.035875 -0.123649  0.104850 -0.006013 -0.120684
  6O   2py       -0.109670  0.145852  0.055134  0.038898 -0.075625  0.030122
  6O   1dz2      -0.019924 -0.014259  0.015583  0.017265  0.025664  0.006180
  6O   1dxz       0.017158  0.007201 -0.015954 -0.012728 -0.011730  0.008741
  6O   1dyz      -0.008753 -0.002512  0.016308  0.041459  0.017385 -0.000423
  6O   1dx2y2     0.012091  0.014252 -0.014760  0.001086 -0.017608 -0.010296
  6O   1dxy      -0.049600  0.002431  0.003917 -0.021979 -0.007537 -0.002460
  7H   1s         0.033228 -0.206517  0.235130  0.591567  0.356821  0.017576
  7H   2s         0.209453  0.357879 -0.241339 -0.662327 -0.385099 -0.161196
  7H   1pz       -0.043147 -0.042543  0.025234  0.095409  0.066289  0.031914
  7H   1px       -0.054809 -0.045688  0.006344 -0.047579 -0.010335  0.022549
  7H   1py        0.039366  0.006260  0.026734  0.076854  0.038130  0.007656
                     42        43        44        45        46        47   
                   0.71081   0.71082   0.79749   0.79749   0.83013   0.85569
                   0.00000   0.00000   0.00000   0.00000   0.00000   0.00000
                  --------  --------  --------  --------  --------  --------
  0P   1s         0.000001  0.000000  0.000000 -0.000000  0.006817  0.000002
  0P   2s         0.000005  0.000003  0.000001 -0.000001  0.063290  0.000011
[...]
     19       0.000322  -0.000215  -0.000074   0.000092  -0.000214  -0.000041
     20       0.000058  -0.000074   0.000187   0.000014  -0.000041   0.000046
     21      -0.000040   0.000071   0.000028  -0.000001   0.000003   0.000001
     22       0.000071  -0.000059  -0.000032   0.000003  -0.000005  -0.000002
     23       0.000028  -0.000032   0.000009   0.000001  -0.000002   0.000000
                 18         19         20         21         22         23    
      0      -0.000108   0.000883  -0.000735  -0.000300   0.000489  -0.000074
      1       0.000883  -0.000175   0.000763   0.000489  -0.000235   0.000070
      2      -0.000735   0.000763   0.000107  -0.000074   0.000070   0.000212
      3       0.000153   0.000053  -0.000064   0.000026   0.000114  -0.000075
      4       0.000053  -0.000072   0.000286   0.000114  -0.000172   0.000165
      5      -0.000064   0.000286  -0.000180  -0.000075   0.000165  -0.000031
      6      -0.000348   0.000012  -0.000267  -0.000235   0.000052  -0.000049
      7       0.000012   0.000200   0.000006   0.000052   0.000043   0.000009
      8      -0.000267   0.000006   0.000070  -0.000049   0.000009   0.000044
      9      -0.000087   0.000017  -0.000070  -0.000006   0.000002  -0.000002
     10       0.000017   0.000020   0.000011   0.000002   0.000000   0.000001
     11      -0.000070   0.000011  -0.000023  -0.000002   0.000001   0.000000
     12      -0.000050   0.000322   0.000058  -0.000040   0.000071   0.000028
     13       0.000322  -0.000215  -0.000074   0.000071  -0.000059  -0.000032
     14       0.000058  -0.000074   0.000187   0.000028  -0.000032   0.000009
     15       0.000020   0.000092   0.000014  -0.000001   0.000003   0.000001
     16       0.000092  -0.000214  -0.000041   0.000003  -0.000005  -0.000002
     17       0.000014  -0.000041   0.000046   0.000001  -0.000002   0.000000
     18      -0.000099  -0.002416  -0.000315   0.000518   0.001037   0.001378
     19      -0.002416  -0.000608   0.000112   0.001037   0.001064  -0.001062
     20      -0.000315   0.000112  -0.000657   0.001378  -0.001062   0.000450
     21       0.000518   0.001037   0.001378   0.000038  -0.001767  -0.001207
     22       0.001037   0.001064  -0.001062  -0.001767  -0.000637   0.000853
     23       0.001378  -0.001062   0.000450  -0.001207   0.000853  -0.000686

done   (      0.0 sec)
Dipol derivatives                                ... done   (      0.2 sec)

-------
TIMINGS
-------

Total SCF Hessian time: 0 days 0 hours 0 min 29 sec 
                   F(y)            G[Q(x)]           CPSCF         Total
Table01         0.5  0.02         0.9  0.03        13.8  0.47        29.1 
Table01a        0.5  0.02,        0.9, 0.03,       13.8  0.47        29.1 
Table01b        0.5   1.8,        0.9,  3.0,       13.8  47.3        29.1 

Writing the Hessian file to the disk             ... done


Maximum memory used throughout the entire calculation: 133.2 MB

-----------------------
VIBRATIONAL FREQUENCIES
-----------------------

Scaling factor for frequencies =  1.000000000  (already applied!)

   0:         0.00 cm**-1
   1:         0.00 cm**-1
   2:         0.00 cm**-1
   3:         0.00 cm**-1
   4:         0.00 cm**-1
   5:         0.00 cm**-1
   6:       144.23 cm**-1
   7:       145.89 cm**-1
   8:       305.79 cm**-1
   9:       348.94 cm**-1
  10:       349.51 cm**-1
  11:       420.18 cm**-1
  12:       420.46 cm**-1
  13:       424.04 cm**-1
  14:       769.08 cm**-1
  15:       862.78 cm**-1
  16:       862.79 cm**-1
  17:      1005.68 cm**-1
  18:      1009.83 cm**-1
  19:      1009.86 cm**-1
  20:      1258.50 cm**-1
  21:      3653.78 cm**-1
  22:      3653.84 cm**-1
  23:      3654.94 cm**-1


------------
NORMAL MODES
------------

These modes are the Cartesian displacements weighted by the diagonal matrix
M(i,i)=1/sqrt(m[i]) where m[i] is the mass of the displaced atom
Thus, these vectors are normalized but *not* orthogonal

                  0          1          2          3          4          5    
      0       0.000000   0.000000   0.000000   0.000000   0.000000   0.000000
      1       0.000000   0.000000   0.000000   0.000000   0.000000   0.000000
      2       0.000000   0.000000   0.000000   0.000000   0.000000   0.000000
      3       0.000000   0.000000   0.000000   0.000000   0.000000   0.000000
      4       0.000000   0.000000   0.000000   0.000000   0.000000   0.000000
      5       0.000000   0.000000   0.000000   0.000000   0.000000   0.000000
      6       0.000000   0.000000   0.000000   0.000000   0.000000   0.000000
      7       0.000000   0.000000   0.000000   0.000000   0.000000   0.000000
      8       0.000000   0.000000   0.000000   0.000000   0.000000   0.000000
      9       0.000000   0.000000   0.000000   0.000000   0.000000   0.000000
     10       0.000000   0.000000   0.000000   0.000000   0.000000   0.000000
     11       0.000000   0.000000   0.000000   0.000000   0.000000   0.000000
     12       0.000000   0.000000   0.000000   0.000000   0.000000   0.000000
     13       0.000000   0.000000   0.000000   0.000000   0.000000   0.000000
     14       0.000000   0.000000   0.000000   0.000000   0.000000   0.000000
     15       0.000000   0.000000   0.000000   0.000000   0.000000   0.000000
     16       0.000000   0.000000   0.000000   0.000000   0.000000   0.000000
     17       0.000000   0.000000   0.000000   0.000000   0.000000   0.000000
     18       0.000000   0.000000   0.000000   0.000000   0.000000   0.000000
     19       0.000000   0.000000   0.000000   0.000000   0.000000   0.000000
     20       0.000000   0.000000   0.000000   0.000000   0.000000   0.000000
     21       0.000000   0.000000   0.000000   0.000000   0.000000   0.000000
     22       0.000000   0.000000   0.000000   0.000000   0.000000   0.000000
     23       0.000000   0.000000   0.000000   0.000000   0.000000   0.000000
                  6          7          8          9         10         11    
      0      -0.003372  -0.003866   0.015010   0.000626   0.011907  -0.077348
      1      -0.002991   0.004198   0.016718  -0.011545  -0.002040  -0.169251
      2      -0.003293   0.000352  -0.029856  -0.006800   0.005657  -0.140017
      3       0.073066  -0.017327   0.014543  -0.094649   0.112423   0.124478
      4      -0.032110  -0.065887   0.015800  -0.086193  -0.115145   0.261648
      5       0.018398  -0.046085  -0.027402  -0.096745  -0.008170   0.204186
      6      -0.021877  -0.049218   0.036310   0.009671  -0.108484  -0.281935
      7       0.020813   0.071497  -0.025542   0.036608   0.131082  -0.027689
      8       0.052770  -0.006462   0.019132  -0.186188   0.038092   0.064677
      9      -0.268259   0.363891  -0.331901  -0.306139  -0.088132  -0.232597
     10       0.211881  -0.220233   0.201049   0.555869   0.234469  -0.090830
     11       0.345938  -0.481313   0.424836   0.334821   0.078741  -0.011762
     12      -0.081884  -0.023017  -0.037054   0.106357  -0.117690   0.190918
     13       0.009907  -0.042511  -0.027173  -0.089844  -0.125470  -0.106297
     14      -0.042103   0.020888  -0.018903   0.124993   0.044214  -0.132278
     15       0.108968   0.345978   0.241497  -0.081786  -0.631602   0.393559
     16      -0.155964  -0.360839  -0.273039   0.065663   0.279275  -0.234198
     17       0.251567   0.550086   0.439803  -0.089330  -0.303858  -0.352178
     18       0.014443   0.048033  -0.013985  -0.020028   0.155382   0.092681
     19      -0.034511   0.060749   0.036960   0.099945   0.101471   0.218314
     20      -0.057545   0.024524   0.027810   0.136740  -0.058748   0.132737
     21       0.520850   0.068056  -0.367852   0.347254  -0.306937   0.213675
     22       0.605819   0.073544  -0.442441   0.359903  -0.323083   0.034470
     23      -0.044278   0.033660   0.042662   0.299942  -0.192963   0.391746
                 12         13         14         15         16         17    
      0       0.197896  -0.067338  -0.053645   0.149012  -0.191865   0.000567
      1      -0.117449  -0.077445  -0.060481  -0.213721  -0.100496   0.002527
      2       0.032702   0.129302   0.106809  -0.046493  -0.152851  -0.000318
      3      -0.300989  -0.073045  -0.114715  -0.002578   0.014882  -0.026933
      4       0.179457  -0.080095  -0.129952   0.014415  -0.000778  -0.031062
      5      -0.048440   0.152882   0.229367   0.007062   0.006839   0.053842
      6      -0.037682  -0.033556   0.329008  -0.001406   0.301912   0.000219
      7       0.247939  -0.038567   0.233092  -0.008830   0.265993   0.033731
      8       0.044868  -0.238736   0.076899   0.032736   0.045012  -0.035289
      9       0.207282  -0.106537   0.291329   0.336417  -0.218309  -0.362661
     10       0.541963   0.482668   0.187720   0.315798  -0.422559  -0.444019
     11       0.014012   0.089925   0.105206  -0.063774   0.111731   0.011340
     12      -0.156808  -0.003978   0.131179  -0.144004  -0.095885   0.034785
     13      -0.027164   0.229666  -0.251735   0.202327   0.086416   0.023128
     14      -0.241377  -0.078291  -0.295968   0.245229   0.162782  -0.023758
     15      -0.223911   0.494811   0.095778   0.199718   0.369025  -0.323269
     16      -0.000297  -0.134869  -0.252428   0.008611  -0.162951   0.221583
     17      -0.053097   0.028428  -0.243391  -0.088684  -0.492603   0.394062
     18       0.098630   0.232224  -0.250472  -0.186986   0.136316   0.016385
     19      -0.192587   0.030080   0.255670   0.202213  -0.109876   0.000561
     20       0.164019  -0.070261  -0.199290  -0.220249   0.100793  -0.047689
     21       0.234473  -0.249859  -0.246541   0.201723   0.075052   0.280352
     22      -0.228429  -0.207338   0.223689  -0.266668  -0.163571  -0.273558
     23       0.318768  -0.371073  -0.144157   0.552961   0.071251   0.443898
                 18         19         20         21         22         23    
      0       0.060269   0.038691   0.171738   0.000579  -0.000123   0.000446
      1      -0.049716   0.048810   0.194766  -0.000250  -0.000541   0.000482
      2       0.001922   0.047028  -0.343641   0.000180  -0.000353  -0.000873
      3      -0.017478  -0.007578  -0.263891  -0.000283  -0.000300   0.000207
      4       0.010955  -0.013607  -0.299213  -0.000228   0.000324   0.000245
      5      -0.001008  -0.013618   0.528041  -0.000254   0.000042  -0.000439
      6      -0.012845  -0.033628  -0.060149   0.029659   0.005612  -0.020835
      7       0.039299   0.008404  -0.064750  -0.017979  -0.003172   0.011998
      8      -0.031226  -0.027082   0.024136   0.036716   0.006861  -0.025276
      9      -0.426469  -0.319646   0.221071  -0.470393  -0.090435   0.320687
     10      -0.502347  -0.347830   0.256415   0.302403   0.057072  -0.205845
     11       0.023498   0.020891  -0.046427  -0.591873  -0.112949   0.404571
     12      -0.003740  -0.048105  -0.048711   0.017601  -0.021771   0.019976
     13       0.020084  -0.040893   0.016371   0.026259  -0.032038   0.030170
     14       0.017533   0.002271   0.075997   0.003485  -0.004134   0.004344
     15      -0.046751   0.455219   0.193245  -0.293479   0.356722  -0.330182
     16       0.041038  -0.317462  -0.102261  -0.421723   0.511062  -0.474888
     17       0.086209  -0.600671  -0.264777  -0.050295   0.059905  -0.055453
     18      -0.031837  -0.003130   0.022046   0.010193   0.029974   0.023753
     19       0.031777   0.002324  -0.050019  -0.007918  -0.023157  -0.018495
     20       0.038238  -0.030766   0.073552  -0.009802  -0.028005  -0.021658
     21      -0.332779   0.142741  -0.125110  -0.161317  -0.477009  -0.370868
     22       0.368229  -0.139788   0.171931   0.124874   0.369747   0.286284
     23      -0.542360   0.232958  -0.267178   0.158169   0.464442   0.360656


-----------
IR SPECTRUM
-----------

 Mode    freq (cm**-1)   T**2         TX         TY         TZ
-------------------------------------------------------------------
   6:       144.23   69.411210  (  2.853081   6.122399   4.877230)
   7:       145.89   69.153642  (  7.086317  -4.191273   1.170890)
   8:       305.79   81.348165  ( -3.631878  -4.078241   7.178132)
   9:       348.94   40.503205  (  0.355127   5.434759   3.292489)
  10:       349.51   40.710785  ( -5.823497   1.642566  -2.024759)
  11:       420.18   52.647348  ( -0.654723  -6.076629  -3.910661)
  12:       420.46   52.482583  (  6.612031  -2.072674   2.113680)
  13:       424.04   20.747706  ( -1.816204  -2.186068   3.559525)
  14:       769.08   18.161954  ( -1.713211  -1.925977   3.393741)
  15:       862.78  303.772611  ( 11.577294 -12.937278  -1.538089)
  16:       862.79  303.878902  (-11.024647  -8.625943 -10.388896)
  17:      1005.68   62.438358  ( -2.952240  -3.580921   6.395283)
  18:      1009.83   56.083538  ( -3.390651  -5.035624  -4.385146)
  19:      1009.86   55.995836  (  6.050878  -4.390126   0.330907)
  20:      1258.50  246.571600  (  6.263084   7.095954 -12.529678)
  21:      3653.78  130.951182  ( -9.325222  -2.458849  -6.159990)
  22:      3653.84  131.332294  ( -4.729630   9.938524   3.191965)
  23:      3654.94   16.987066  ( -1.903924  -1.802337   3.180207)

The first frequency considered to be a vibration is 6
The total number of vibrations considered is 18


--------------------------
THERMOCHEMISTRY AT 298.15K
--------------------------

Temperature         ... 298.15 K
Pressure            ... 1.00 atm
Total Mass          ... 97.99 AMU

Throughout the following assumptions are being made:
  (1) The electronic state is orbitally nondegenerate
  (2) There are no thermally accessible electronically excited states
  (3) Hindered rotations indicated by low frequency modes are not
      treated as such but are treated as vibrations and this may
      cause some error
  (4) All equations used are the standard statistical mechanics
      equations for an ideal gas
  (5) All vibrations are strictly harmonic

freq.     144.23  E(vib)   ...       0.41 
freq.     145.89  E(vib)   ...       0.41 
freq.     305.79  E(vib)   ...       0.26 
freq.     348.94  E(vib)   ...       0.23 
freq.     349.51  E(vib)   ...       0.23 
freq.     420.18  E(vib)   ...       0.18 
freq.     420.46  E(vib)   ...       0.18 
freq.     424.04  E(vib)   ...       0.18 
freq.     769.08  E(vib)   ...       0.06 
freq.     862.78  E(vib)   ...       0.04 
freq.     862.79  E(vib)   ...       0.04 
freq.    1005.68  E(vib)   ...       0.02 
freq.    1009.83  E(vib)   ...       0.02 
freq.    1009.86  E(vib)   ...       0.02 
freq.    1258.50  E(vib)   ...       0.01 
freq.    3653.78  E(vib)   ...       0.00 
freq.    3653.84  E(vib)   ...       0.00 
freq.    3654.94  E(vib)   ...       0.00 

------------
INNER ENERGY
------------

The inner energy is: U= E(el) + E(ZPE) + E(vib) + E(rot) + E(trans)
    E(el)   - is the total energy from the electronic structure calculation
              = E(kin-el) + E(nuc-el) + E(el-el) + E(nuc-nuc)
    E(ZPE)  - the the zero temperature vibrational energy from the frequency calculation
    E(vib)  - the the finite temperature correction to E(ZPE) due to population
              of excited vibrational states
    E(rot)  - is the rotational thermal energy
    E(trans)- is the translational thermal energy

Summary of contributions to the inner energy U:
Electronic energy                ...   -643.61746459 Eh
Zero point energy                ...      0.04624708 Eh      29.02 kcal/mol
Thermal vibrational correction   ...      0.00364051 Eh       2.28 kcal/mol
Thermal rotational correction    ...      0.00141627 Eh       0.89 kcal/mol
Thermal translational correction ...      0.00141627 Eh       0.89 kcal/mol
-----------------------------------------------------------------------
Total thermal energy                   -643.56474445 Eh


Summary of corrections to the electronic energy:
(perhaps to be used in another calculation)
Total thermal correction                  0.00647306 Eh       4.06 kcal/mol
Non-thermal (ZPE) correction              0.04624708 Eh      29.02 kcal/mol
-----------------------------------------------------------------------
Total correction                          0.05272014 Eh      33.08 kcal/mol


--------
ENTHALPY
--------

The enthalpy is H = U + kB*T
                kB is Boltzmann's constant
Total free energy                 ...   -643.56474445 Eh 
Thermal Enthalpy correction       ...      0.00094421 Eh       0.59 kcal/mol
-----------------------------------------------------------------------
Total Enthalpy                    ...   -643.56380024 Eh


Note: Only C1 symmetry has been detected, increase convergence thresholds 
      if your molecule has a higher symmetry. Symmetry factor of 1.0 is   
      used for the rotational entropy correction. 
 

Note: Rotational entropy computed according to Herzberg 
Infrared and Raman Spectra, Chapter V,1, Van Nostrand Reinhold, 1945 
Point Group:  C1, Symmetry Number:   1  
Rotational constants in cm-1:     0.143892     0.140837     0.140812 

Vibrational entropy computed according to the QRRHO of S. Grimme
Chem.Eur.J. 2012 18 9955


-------
ENTROPY
-------

The entropy contributions are T*S = T*(S(el)+S(vib)+S(rot)+S(trans))
     S(el)   - electronic entropy
     S(vib)  - vibrational entropy
     S(rot)  - rotational entropy
     S(trans)- translational entropy
The entropies will be listed as mutliplied by the temperature to get
units of energy

Electronic entropy                ...      0.00000000 Eh      0.00 kcal/mol
Vibrational entropy               ...      0.00600645 Eh      3.77 kcal/mol
Rotational entropy                ...      0.01227687 Eh      7.70 kcal/mol
Translational entropy             ...      0.01884254 Eh     11.82 kcal/mol
-----------------------------------------------------------------------
Final entropy term                ...      0.03712586 Eh     23.30 kcal/mol

In case the symmetry of your molecule has not been determined correctly
or in case you have a reason to use a different symmetry number we print 
out the resulting rotational entropy values for sn=1,12 :
 --------------------------------------------------------
|  sn= 1 | S(rot)=       0.01227687 Eh      7.70 kcal/mol|
|  sn= 2 | S(rot)=       0.01162241 Eh      7.29 kcal/mol|
|  sn= 3 | S(rot)=       0.01123958 Eh      7.05 kcal/mol|
|  sn= 4 | S(rot)=       0.01096796 Eh      6.88 kcal/mol|
|  sn= 5 | S(rot)=       0.01075727 Eh      6.75 kcal/mol|
|  sn= 6 | S(rot)=       0.01058512 Eh      6.64 kcal/mol|
|  sn= 7 | S(rot)=       0.01043958 Eh      6.55 kcal/mol|
|  sn= 8 | S(rot)=       0.01031350 Eh      6.47 kcal/mol|
|  sn= 9 | S(rot)=       0.01020229 Eh      6.40 kcal/mol|
|  sn=10 | S(rot)=       0.01010281 Eh      6.34 kcal/mol|
|  sn=11 | S(rot)=       0.01001282 Eh      6.28 kcal/mol|
|  sn=12 | S(rot)=       0.00993067 Eh      6.23 kcal/mol|
 --------------------------------------------------------


-------------------
GIBBS FREE ENERGY
-------------------

The Gibbs free energy is G = H - T*S

Total enthalpy                    ...   -643.56380024 Eh 
Total entropy correction          ...     -0.03712586 Eh    -23.30 kcal/mol
-----------------------------------------------------------------------
Final Gibbs free energy         ...   -643.60092611 Eh

For completeness - the Gibbs free energy minus the electronic energy
G-E(el)                           ...      0.01653848 Eh     10.38 kcal/mol


Timings for individual modules:

Sum of individual times         ...      151.209 sec (=   2.520 min)
GTO integral calculation        ...       13.485 sec (=   0.225 min)   8.9 %
SCF iterations                  ...       84.435 sec (=   1.407 min)  55.8 %
SCF Gradient evaluation         ...       22.681 sec (=   0.378 min)  15.0 %
Geometry relaxation             ...        0.437 sec (=   0.007 min)   0.3 %
Analytical frequency calculation...       30.171 sec (=   0.503 min)  20.0 %
                             ****ORCA TERMINATED NORMALLY****
TOTAL RUN TIME: 0 days 0 hours 2 minutes 33 seconds 220 msec
