
                                 *****************
                                 * O   R   C   A *
                                 *****************

           --- An Ab Initio, DFT and Semiempirical electronic structure package ---

                  #######################################################
                  #                        -***-                        #
                  #          Department of theory and spectroscopy      #
                  #               Directorship: Frank Neese             #
                  #        Max Planck Institute fuer Kohlenforschung    #
                  #                Kaiser Wilhelm Platz 1               #
                  #                 D-45470 Muelheim/Ruhr               #
                  #                      Germany                        #
                  #                                                     #
                  #                  All rights reserved                #
                  #                        -***-                        #
                  #######################################################


                         Program Version 4.2.1 -  RELEASE  -


 With contributions from (in alphabetic order):
   Daniel Aravena         : Magnetic Suceptibility
   Michael Atanasov       : Ab Initio Ligand Field Theory (pilot matlab implementation)
   Alexander A. Auer      : GIAO ZORA, VPT2
   Ute Becker             : Parallelization
   Giovanni Bistoni       : ED, misc. LED, open-shell LED, HFLD
   Martin Brehm           : Molecular dynamics
   Dmytro Bykov           : SCF Hessian
   Vijay G. Chilkuri      : MRCI spin determinant printing, contributions to CSF-ICE
   Dipayan Datta          : RHF DLPNO-CCSD density
   Achintya Kumar Dutta   : EOM-CC, STEOM-CC
   Dmitry Ganyushin       : Spin-Orbit,Spin-Spin,Magnetic field MRCI
   Miquel Garcia          : C-PCM Hessian, Gaussian charge scheme
   Yang Guo               : DLPNO-NEVPT2, CIM, IAO-localization
   Andreas Hansen         : Spin unrestricted coupled pair/coupled cluster methods
   Benjamin Helmich-Paris : CASSCF linear response (MC-RPA)
   Lee Huntington         : MR-EOM, pCC
   Robert Izsak           : Overlap fitted RIJCOSX, COSX-SCS-MP3, EOM
   Christian Kollmar      : KDIIS, OOCD, Brueckner-CCSD(T), CCSD density
   Simone Kossmann        : Meta GGA functionals, TD-DFT gradient, OOMP2, MP2 Hessian
   Martin Krupicka        : AUTO-CI
   Lucas Lang             : DCDCAS
   Dagmar Lenk            : GEPOL surface, SMD
   Dimitrios Liakos       : Extrapolation schemes; Compound Job, initial MDCI parallelization
   Dimitrios Manganas     : Further ROCIS development; embedding schemes
   Dimitrios Pantazis     : SARC Basis sets
   Taras Petrenko         : DFT Hessian,TD-DFT gradient, ASA, ECA, R-Raman, ABS, FL, XAS/XES, NRVS
   Peter Pinski           : DLPNO-MP2, DLPNO-MP2 Gradient
   Christoph Reimann      : Effective Core Potentials
   Marius Retegan         : Local ZFS, SOC
   Christoph Riplinger    : Optimizer, TS searches, QM/MM, DLPNO-CCSD(T), (RO)-DLPNO pert. Triples
   Tobias Risthaus        : Range-separated hybrids, TD-DFT gradient, RPA, STAB
   Michael Roemelt        : Original ROCIS implementation
   Masaaki Saitow         : Open-shell DLPNO-CCSD energy and density
   Barbara Sandhoefer     : DKH picture change effects
   Avijit Sen             : IP-ROCIS
   Kantharuban Sivalingam : CASSCF convergence, NEVPT2, FIC-MRCI
   Bernardo de Souza      : ESD, SOC TD-DFT
   Georgi Stoychev        : AutoAux, RI-MP2 NMR
   Willem Van den Heuvel  : Paramagnetic NMR
   Boris Wezisla          : Elementary symmetry handling
   Frank Wennmohs         : Technical directorship


 We gratefully acknowledge several colleagues who have allowed us to
 interface, adapt or use parts of their codes:
   Stefan Grimme, W. Hujo, H. Kruse,             : VdW corrections, initial TS optimization,
                  C. Bannwarth                     DFT functionals, gCP, sTDA/sTD-DF
   Ed Valeev, F. Pavosevic, A. Kumar             : LibInt (2-el integral package), F12 methods
   Garnet Chan, S. Sharma, J. Yang, R. Olivares  : DMRG
   Ulf Ekstrom                                   : XCFun DFT Library
   Mihaly Kallay                                 : mrcc  (arbitrary order and MRCC methods)
   Andreas Klamt, Michael Diedenhofen            : otool_cosmo (COSMO solvation model)
   Jiri Pittner, Ondrej Demel                    : Mk-CCSD
   Frank Weinhold                                : gennbo (NPA and NBO analysis)
   Christopher J. Cramer and Donald G. Truhlar   : smd solvation model
   Lars Goerigk                                  : TD-DFT with DH, B97 family of functionals
   V. Asgeirsson, H. Jonsson                     : NEB implementation
   FAccTs GmbH                                   : IRC, NEB, NEB-TS, Multilevel, MM, QM/MM, CI optimization
   S Lehtola, MJT Oliveira, MAL Marques          : LibXC Library


 Your calculation uses the libint2 library for the computation of 2-el integrals
 For citations please refer to: http://libint.valeyev.net

 Your ORCA version has been built with support for libXC version: 4.2.3
 For citations please refer to: https://tddft.org/programs/libxc/

 This ORCA versions uses:
   CBLAS   interface :  Fast vector & matrix operations
   LAPACKE interface :  Fast linear algebra routines
   SCALAPACK package :  Parallel linear algebra routines


Your calculation utilizes the geometrical counterpoise correction gCP
Please cite in your paper:
H.Kruse, S. Grimme J.Chem.Phys., 136, (2012), 154101 
   

Your calculation utilizes the atom-pairwise dispersion correction
based on tight binding partial charges (D4)
Cite in your paper:
E.Caldeweyher, C.Bannwarth, S.Grimme, J.Chem.Phys., (2017), 147, 034112.
E.Caldeweyher, S.Ehlert, A.Hansen, H.Neugebauer, S.Grimme, J.Chem.Phys., (2018), in progress.
   

----- Orbital basis set information -----
Your calculation utilizes the basis: def2-SVP
   F. Weigend and R. Ahlrichs, Phys. Chem. Chem. Phys. 7, 3297 (2005).

----- AuxJ basis set information -----
Your calculation utilizes the auxiliary basis: def2/J
   F. Weigend, Phys. Chem. Chem. Phys. 8, 1057 (2006).

================================================================================
                                        WARNINGS
                       Please study these warnings very carefully!
================================================================================


WARNING: Geometry Optimization
  ===> : Switching off AutoStart
         For restart on a previous wavefunction, please use MOREAD

INFO   : the flag for use of LIBINT has been found!

================================================================================
                                       INPUT FILE
================================================================================
NAME = HCCH.inp
|  1> ! revPBE D4 gCP(DFT/SVP) def2-SVP Opt Freq TightOpt TightSCF Grid4 FinalGrid5 LargePrint
|  2> 
|  3> %pal
|  4>  nprocs 4
|  5> end
|  6> 
|  7> *xyz 0 1
|  8> C       -0.2707089408      2.7145774681     -4.6902475789                 
|  9> C        0.1347802131      2.1239999487     -5.6596068056                 
| 10> H       -0.6267578445      3.2331473886     -3.8390798312                 
| 11> H        0.4908291168      1.6054300282     -6.5107745533                 
| 12> *
| 13> 
| 14>                          ****END OF INPUT****
================================================================================

                       *****************************
                       * Geometry Optimization Run *
                       *****************************

Geometry optimization settings:
Update method            Update   .... BFGS
Choice of coordinates    CoordSys .... Z-matrix Internals
Initial Hessian          InHess   .... Almoef's Model

Convergence Tolerances:
Energy Change            TolE     ....  1.0000e-06 Eh
Max. Gradient            TolMAXG  ....  1.0000e-04 Eh/bohr
RMS Gradient             TolRMSG  ....  3.0000e-05 Eh/bohr
Max. Displacement        TolMAXD  ....  1.0000e-03 bohr
RMS Displacement         TolRMSD  ....  6.0000e-04 bohr
Strict Convergence                ....  False
------------------------------------------------------------------------------
                        ORCA OPTIMIZATION COORDINATE SETUP
------------------------------------------------------------------------------

The optimization will be done in new redundant internal coordinates
Making redundant internal coordinates   ...  (new redundants) done
Evaluating the initial hessian          ...  (Almloef) done
Evaluating the coordinates              ...  done
Calculating the B-matrix                .... done
Calculating the G-matrix                .... done
Diagonalizing the G-matrix              .... done
The first mode is                       ....    0
The number of degrees of freedom        ....    7

    -----------------------------------------------------------------
                    Redundant Internal Coordinates


    -----------------------------------------------------------------
         Definition                    Initial Value    Approx d2E/dq
    -----------------------------------------------------------------
      1. B(C   1,C   0)                  1.2053         1.231236   
      2. B(H   2,C   0)                  1.0584         0.404453   
      3. B(H   3,C   1)                  1.0584         0.404453   
      4. L(C   1,C   0,H   2, 1)       180.0000         0.405453   
      5. L(C   1,C   0,H   2, 2)       180.0000         0.405453   
      6. L(C   0,C   1,H   3, 1)       180.0000         0.405453   
      7. L(C   0,C   1,H   3, 2)       180.0000         0.405453   
    -----------------------------------------------------------------

Number of atoms                         .... 4
Number of degrees of freedom            .... 7

         *************************************************************
         *                GEOMETRY OPTIMIZATION CYCLE   1            *
         *************************************************************
---------------------------------
CARTESIAN COORDINATES (ANGSTROEM)
---------------------------------
  C     -0.270709    2.714577   -4.690248
  C      0.134780    2.124000   -5.659607
  H     -0.626758    3.233147   -3.839080
  H      0.490829    1.605430   -6.510775

----------------------------
CARTESIAN COORDINATES (A.U.)
----------------------------
  NO LB      ZA    FRAG     MASS         X           Y           Z
   0 C     6.0000    0    12.011   -0.511566    5.129808   -8.863283
   1 C     6.0000    0    12.011    0.254698    4.013778  -10.695107
   2 H     1.0000    0     1.008   -1.184401    6.109763   -7.254809
   3 H     1.0000    0     1.008    0.927533    3.033823  -12.303581

--------------------------------
INTERNAL COORDINATES (ANGSTROEM)
--------------------------------
 C      0   0   0     0.000000000000     0.00000000     0.00000000
 C      1   0   0     1.205346659986     0.00000000     0.00000000
 H      1   2   0     1.058381839885   180.00000000     0.00000000
 H      2   1   3     1.058381839885   180.00000000     0.00000000

---------------------------
INTERNAL COORDINATES (A.U.)
---------------------------
 C      0   0   0     0.000000000000     0.00000000     0.00000000
 C      1   0   0     2.277775083810     0.00000000     0.00000000
 H      1   2   0     2.000051822498   180.00000000     0.00000000
 H      2   1   3     2.000051822498   180.00000000     0.00000000

---------------------
BASIS SET INFORMATION
---------------------
There are 2 groups of distinct atoms

 Group   1 Type C   : 7s4p1d contracted to 3s2p1d pattern {511/31/1}
 Group   2 Type H   : 4s1p contracted to 2s1p pattern {31/1}

Atom   0C    basis set group =>   1
Atom   1C    basis set group =>   1
Atom   2H    basis set group =>   2
Atom   3H    basis set group =>   2

-------------------------
BASIS SET IN INPUT FORMAT
-------------------------

 # Basis set for element : H 
 NewGTO H 
 S 3 
   1      13.0107010000      0.0334854848
   2       1.9622572000      0.2347218709
   3       0.4445379600      0.8137702853
 S 1 
   1       0.1219496200      1.0000000000
 P 1 
   1       0.8000000000      1.0000000000
  end;

 # Basis set for element : C 
 NewGTO C 
 S 5 
   1    1238.4016938000      0.0055173650
   2     186.2900499200      0.0410888285
   3      42.2511763460      0.1822538213
   4      11.6765579320      0.4682845944
   5       3.5930506482      0.4457581734
 S 1 
   1       0.4024514736      1.0000000000
 S 1 
   1       0.1309018267      1.0000000000
 P 3 
   1       9.4680970621      0.0568883320
   2       2.0103545142      0.3129405934
   3       0.5477100471      0.7606501651
 P 1 
   1       0.1526861379      1.0000000000
 D 1 
   1       0.8000000000      1.0000000000
  end;

---------------------------------
AUXILIARY/J BASIS SET INFORMATION
---------------------------------
There are 2 groups of distinct atoms

 Group   1 Type C   : 12s5p4d2f1g contracted to 6s4p3d1f1g pattern {711111/2111/211/2/1}
 Group   2 Type H   : 5s2p1d contracted to 3s1p1d pattern {311/2/1}

Atom   0C    basis set group =>   1
Atom   1C    basis set group =>   1
Atom   2H    basis set group =>   2
Atom   3H    basis set group =>   2

-------------------------------------
AUXILIARY/J BASIS SET IN INPUT FORMAT
-------------------------------------

 # Auxiliary/J basis set for element : H 
 NewAuxJGTO H 
 S 3 
   1      15.6752927000      0.1007184237
   2       3.6063578000      0.3404257499
   3       1.2080016000      0.6491996172
 S 1 
   1       0.4726794000      1.0000000000
 S 1 
   1       0.2018100000      1.0000000000
 P 2 
   1       2.0281365000      0.5596620919
   2       0.5358730000      0.5596620919
 D 1 
   1       2.2165124000      1.0000000000
  end;

 # Auxiliary/J basis set for element : C 
 NewAuxJGTO C 
 S 7 
   1    1861.0916331000      0.0134602335
   2     642.9939764000      0.0299160374
   3     235.1105725000      0.1008649584
   4      90.7028894000      0.2370970548
   5      36.7794552000      0.3924037254
   6      15.6046273000      0.3195862154
   7       6.8907294000      0.0530104441
 S 1 
   1       3.1478850000     -1.0000000000
 S 1 
   1       1.4777287000      1.0000000000
 S 1 
   1       0.7076466000      1.0000000000
 S 1 
   1       0.3430122000      1.0000000000
 S 1 
   1       0.1669453000      1.0000000000
 P 2 
   1      13.5472892000     -0.6769313712
   2       5.4669419000     -0.3779500978
 P 1 
   1       2.1751721000      1.0000000000
 P 1 
   1       0.8582194000      1.0000000000
 P 1 
   1       0.3376720000      1.0000000000
 D 2 
   1       5.9287253000     -0.3533329857
   2       1.9809209000     -0.7456525731
 D 1 
   1       0.8055417000     -1.0000000000
 D 1 
   1       0.3531244000     -1.0000000000
 F 2 
   1       1.6755626000      0.6311076882
   2       0.5997536000      0.4968166032
 G 1 
   1       1.0024600000     -1.0000000000
  end;



           ************************************************************
           *        Program running with 4 parallel MPI-processes     *
           *              working on a common directory               *
           ************************************************************
------------------------------------------------------------------------------
                           ORCA GTO INTEGRAL CALCULATION
                           -- RI-GTO INTEGRALS CHOSEN --
------------------------------------------------------------------------------

                         BASIS SET STATISTICS AND STARTUP INFO

Gaussian basis set:
 # of primitive gaussian shells          ...   34
 # of primitive gaussian functions       ...   62
 # of contracted shells                  ...   18
 # of contracted basis functions         ...   38
 Highest angular momentum                ...    2
 Maximum contraction depth               ...    5
Auxiliary gaussian basis set:
 # of primitive gaussian shells          ...   64
 # of primitive gaussian functions       ...  172
 # of contracted shells                  ...   40
 # of contracted aux-basis functions     ...  120
 Highest angular momentum                ...    4
 Maximum contraction depth               ...    7
Ratio of auxiliary to basis functions    ...  3.16
Integral package used                  ... LIBINT
 One Electron integrals                  ... done
 Ordering auxiliary basis shells         ... done
 Integral threshhold             Thresh  ...  2.500e-11
 Primitive cut-off               TCut    ...  2.500e-12
 Pre-screening matrix                    ... done
 Shell pair data                         ... 
 Ordering of the shell pairs             ... done (   0.000 sec) 171 of 171 pairs
 Determination of significant pairs      ... done (   0.000 sec)
 Creation of shell pair data             ... done (   0.000 sec)
 Storage of shell pair data              ... done (   0.007 sec)
 Shell pair data done in (   0.007 sec)
 Computing two index integrals           ... done
 Cholesky decomposition of the V-matrix  ... done


Timings:
 Total evaluation time                   ...   0.186 sec (  0.003 min)
 One electron matrix time                ...   0.024 sec (  0.000 min) = 12.8%
 Schwartz matrix evaluation time         ...   0.111 sec (  0.002 min) = 59.5%
 Two index repulsion integral time       ...   0.001 sec (  0.000 min) =  0.3%
 Cholesky decomposition of V             ...   0.003 sec (  0.000 min) =  1.8%
 Three index repulsion integral time     ...   0.000 sec (  0.000 min) =  0.0%



           ************************************************************
           *        Program running with 4 parallel MPI-processes     *
           *              working on a common directory               *
           ************************************************************
-------------------------------------------------------------------------------
                                 ORCA SCF
-------------------------------------------------------------------------------

------------
SCF SETTINGS
------------
Hamiltonian:
 Density Functional     Method          .... DFT(GTOs)
 Exchange Functional    Exchange        .... PBE
   PBE kappa parameter   XKappa         ....  1.245000
   PBE mue parameter    XMuePBE         ....  0.219520
 Correlation Functional Correlation     .... PBE
   PBE beta parameter  CBetaPBE         ....  0.066725
 LDA part of GGA corr.  LDAOpt          .... PW91-LDA
 Gradients option       PostSCFGGA      .... off
   Density functional embedding theory  .... OFF
   NL short-range parameter             ....  3.700000
 RI-approximation to the Coulomb term is turned on
   Number of auxiliary basis functions  .... 120


General Settings:
 Integral files         IntName         .... HCCH
 Hartree-Fock type      HFTyp           .... RHF
 Total Charge           Charge          ....    0
 Multiplicity           Mult            ....    1
 Number of Electrons    NEL             ....   14
 Basis Dimension        Dim             ....   38
 Nuclear Repulsion      ENuc            ....     24.7691933410 Eh

Convergence Acceleration:
 DIIS                   CNVDIIS         .... on
   Start iteration      DIISMaxIt       ....    12
   Startup error        DIISStart       ....  0.200000
   # of expansion vecs  DIISMaxEq       ....     5
   Bias factor          DIISBfac        ....   1.050
   Max. coefficient     DIISMaxC        ....  10.000
 Newton-Raphson         CNVNR           .... off
 SOSCF                  CNVSOSCF        .... on
   Start iteration      SOSCFMaxIt      ....   150
   Startup grad/error   SOSCFStart      ....  0.003300
 Level Shifting         CNVShift        .... on
   Level shift para.    LevelShift      ....    0.2500
   Turn off err/grad.   ShiftErr        ....    0.0010
 Zerner damping         CNVZerner       .... off
 Static damping         CNVDamp         .... on
   Fraction old density DampFac         ....    0.7000
   Max. Damping (<1)    DampMax         ....    0.9800
   Min. Damping (>=0)   DampMin         ....    0.0000
   Turn off err/grad.   DampErr         ....    0.1000
 Fernandez-Rico         CNVRico         .... off

SCF Procedure:
 Maximum # iterations   MaxIter         ....   125
 SCF integral mode      SCFMode         .... Direct
   Integral package                     .... LIBINT
 Reset frequency        DirectResetFreq ....    20
 Integral Threshold     Thresh          ....  2.500e-11 Eh
 Primitive CutOff       TCut            ....  2.500e-12 Eh

Convergence Tolerance:
 Convergence Check Mode ConvCheckMode   .... Total+1el-Energy
 Convergence forced     ConvForced      .... 0
 Energy Change          TolE            ....  1.000e-08 Eh
 1-El. energy change                    ....  1.000e-05 Eh
 Orbital Gradient       TolG            ....  1.000e-05
 Orbital Rotation angle TolX            ....  1.000e-05
 DIIS Error             TolErr          ....  5.000e-07


Diagonalization of the overlap matrix:
Smallest eigenvalue                        ... 1.331e-03
Time for diagonalization                   ...    0.001 sec
Threshold for overlap eigenvalues          ... 1.000e-08
Number of eigenvalues below threshold      ... 0
Time for construction of square roots      ...    0.000 sec
Total time needed                          ...    0.001 sec

-------------------
DFT GRID GENERATION
-------------------

General Integration Accuracy     IntAcc      ...  4.670
Radial Grid Type                 RadialGrid  ... Gauss-Chebyshev
Angular Grid (max. acc.)         AngularGrid ... Lebedev-302
Angular grid pruning method      GridPruning ... 3 (G Style)
Weight generation scheme         WeightScheme... Becke
Basis function cutoff            BFCut       ...    1.0000e-11
Integration weight cutoff        WCut        ...    1.0000e-14
Grids for H and He will be reduced by one unit

# of grid points (after initial pruning)     ...  19212 (   0.0 sec)
# of grid points (after weights+screening)   ...  18964 (   0.0 sec)
nearest neighbour list constructed           ...    0.0 sec
Grid point re-assignment to atoms done       ...    0.0 sec
Grid point division into batches done        ...    0.1 sec
Reduced shell lists constructed in    0.1 sec

Total number of grid points                  ...    18964
Total number of batches                      ...      300
Average number of points per batch           ...       63
Average number of grid points per atom       ...     4741
Average number of shells per batch           ...    16.32 (90.64%)
Average number of basis functions per batch  ...    34.45 (90.65%)
Average number of large shells per batch     ...    15.16 (92.90%)
Average number of large basis fcns per batch ...    32.03 (92.97%)
Maximum spatial batch extension              ...  22.21, 20.59, 14.34 au
Average spatial batch extension              ...   1.07,  1.05,  0.72 au

Time for grid setup =    0.178 sec

------------------------------
INITIAL GUESS: MODEL POTENTIAL
------------------------------
Loading Hartree-Fock densities                     ... done
Calculating cut-offs                               ... done
Setting up the integral package                    ... done
Initializing the effective Hamiltonian             ... done
Starting the Coulomb interaction                   ... done (   0.0 sec)
Reading the grid                                   ... done
Mapping shells                                     ... done
Starting the XC term evaluation                    ... done (   0.0 sec)
  promolecular density results
     # of electrons  =     13.999015689
     EX              =    -10.812648259
     EC              =     -0.421454513
     EX+EC           =    -11.234102772
Transforming the Hamiltonian                       ... done (   0.0 sec)
Diagonalizing the Hamiltonian                      ... done (   0.0 sec)
Back transforming the eigenvectors                 ... done (   0.0 sec)
Now organizing SCF variables                       ... done
                      ------------------
                      INITIAL GUESS DONE (   0.3 sec)
                      ------------------
----------------------
INITIAL GUESS ORBITALS
----------------------
                      0         1         2         3         4         5   
                 -10.09039 -10.08835  -0.84186  -0.60017  -0.55705  -0.38009
                   2.00000   2.00000   2.00000   2.00000   2.00000   2.00000
                  --------  --------  --------  --------  --------  --------
  0C   1s        -0.698838 -0.698284  0.221614  0.153336  0.042567  0.000000
  0C   2s        -0.028108 -0.042657 -0.433196 -0.330284 -0.091270 -0.000002
  0C   3s         0.007148  0.016185 -0.096940 -0.423785 -0.036344  0.000021
  0C   1pz       -0.002133  0.004753  0.179682 -0.172726 -0.308465 -0.182807
  0C   1px        0.000892 -0.001988 -0.075162  0.072252  0.129032 -0.433013
  0C   1py       -0.001299  0.002896  0.109471 -0.105233 -0.187931  0.002748
  0C   2pz       -0.002795  0.006158 -0.001651  0.120767 -0.019489 -0.079152
  0C   2px        0.001169 -0.002576  0.000691 -0.050517  0.008152 -0.187469
  0C   2py       -0.001703  0.003752 -0.001005  0.073577 -0.011874  0.001186
  0C   1dz2      -0.001803 -0.003295 -0.013564 -0.000478  0.001276  0.016981
  0C   1dxz       0.001798  0.003284  0.013520  0.000477 -0.001272  0.019123
  0C   1dyz      -0.002618 -0.004783 -0.019691 -0.000694  0.001853  0.005826
  0C   1dx2y2     0.000422  0.000770  0.003171  0.000112 -0.000298 -0.009625
  0C   1dxy       0.001095  0.002001  0.008237  0.000290 -0.000775  0.014211
  1C   1s        -0.698838  0.698284  0.221614 -0.153336  0.042567 -0.000000
  1C   2s        -0.028108  0.042657 -0.433196  0.330284 -0.091270  0.000002
  1C   3s         0.007148 -0.016185 -0.096940  0.423785 -0.036344 -0.000021
  1C   1pz        0.002133  0.004753 -0.179682 -0.172726  0.308465 -0.182807
  1C   1px       -0.000892 -0.001988  0.075162  0.072252 -0.129032 -0.433013
  1C   1py        0.001299  0.002896 -0.109471 -0.105233  0.187931  0.002748
  1C   2pz        0.002795  0.006158  0.001651  0.120767  0.019489 -0.079152
  1C   2px       -0.001169 -0.002576 -0.000691 -0.050517 -0.008152 -0.187469
  1C   2py        0.001703  0.003752  0.001005  0.073577  0.011874  0.001186
  1C   1dz2      -0.001803  0.003295 -0.013564  0.000478  0.001276 -0.016981
  1C   1dxz       0.001798 -0.003284  0.013520 -0.000477 -0.001272 -0.019123
  1C   1dyz      -0.002618  0.004783 -0.019691  0.000694  0.001853 -0.005826
  1C   1dx2y2     0.000422 -0.000770  0.003171 -0.000112 -0.000298  0.009625
  1C   1dxy       0.001095 -0.002001  0.008237 -0.000290 -0.000775 -0.014211
  2H   1s         0.006215  0.004721 -0.050427 -0.295575 -0.300555  0.000001
  2H   2s        -0.000743 -0.009288  0.015665 -0.080611 -0.090892 -0.000002
  2H   1pz       -0.002489 -0.002926  0.006781  0.019324  0.015585 -0.005718
  2H   1px        0.001041  0.001224 -0.002837 -0.008083 -0.006519 -0.013543
  2H   1py       -0.001517 -0.001783  0.004131  0.011773  0.009495  0.000086
  3H   1s         0.006215 -0.004721 -0.050427  0.295575 -0.300555 -0.000001
  3H   2s        -0.000743  0.009288  0.015665  0.080611 -0.090892  0.000002
  3H   1pz        0.002489 -0.002926 -0.006781  0.019324 -0.015585 -0.005718
  3H   1px       -0.001041  0.001224  0.002837 -0.008083  0.006519 -0.013543
  3H   1py        0.001517 -0.001783 -0.004131  0.011773 -0.009495  0.000086
                      6         7         8         9        10        11   
                  -0.38009  -0.09150  -0.09149   0.02070   0.04969   0.18643
                   2.00000   0.00000   0.00000   0.00000   0.00000   0.00000
                  --------  --------  --------  --------  --------  --------
  0C   1s        -0.000000  0.000000 -0.000001 -0.140519 -0.048019  0.063986
  0C   2s         0.000002 -0.000003  0.000008  0.346278  0.081142 -0.142529
  0C   3s        -0.000024  0.000012 -0.000029  0.778726  1.186181 -5.728697
  0C   1pz       -0.211236 -0.259162 -0.149649  0.053569  0.235689  0.134409
  0C   1px        0.091778 -0.406061  0.244870 -0.022404 -0.098576 -0.056237
  0C   1py        0.409734  0.146584  0.413749  0.032641  0.143607  0.081875
  0C   2pz       -0.091447 -0.301588 -0.174144  0.472812  0.413349  2.779195
  0C   2px        0.039732 -0.472538  0.284948 -0.197784 -0.172914 -1.162543
  0C   2py        0.177398  0.170582  0.481463  0.288055  0.251822  1.693223
  0C   1dz2       0.019623 -0.019651 -0.011346 -0.019569 -0.013630  0.029513
  0C   1dxz      -0.009662 -0.013030  0.013459  0.019504  0.013586 -0.029416
  0C   1dyz      -0.015073 -0.000495  0.014121 -0.028407 -0.019785  0.042844
  0C   1dx2y2     0.015448  0.003526 -0.015519  0.004574  0.003185 -0.006899
  0C   1dxy       0.006193 -0.013514 -0.001046  0.011883  0.008276 -0.017921
  1C   1s         0.000000  0.000000 -0.000001  0.140519 -0.048019 -0.063986
  1C   2s        -0.000002 -0.000003  0.000008 -0.346278  0.081142  0.142529
  1C   3s         0.000024  0.000012 -0.000029 -0.778726  1.186181  5.728697
  1C   1pz       -0.211236  0.259162  0.149649  0.053569 -0.235689  0.134409
  1C   1px        0.091778  0.406061 -0.244870 -0.022404  0.098576 -0.056237
  1C   1py        0.409734 -0.146584 -0.413749  0.032641 -0.143607  0.081875
  1C   2pz       -0.091447  0.301588  0.174144  0.472812 -0.413349  2.779195
  1C   2px        0.039732  0.472538 -0.284948 -0.197784  0.172914 -1.162543
  1C   2py        0.177398 -0.170582 -0.481463  0.288055 -0.251822  1.693223
  1C   1dz2      -0.019623 -0.019651 -0.011346  0.019569 -0.013630 -0.029513
  1C   1dxz       0.009662 -0.013030  0.013459 -0.019504  0.013586  0.029416
  1C   1dyz       0.015073 -0.000495  0.014121  0.028407 -0.019785 -0.042844
  1C   1dx2y2    -0.015448  0.003526 -0.015519 -0.004574  0.003185  0.006899
  1C   1dxy      -0.006193 -0.013514 -0.001046 -0.011883  0.008276  0.017921
  2H   1s        -0.000001 -0.000000  0.000001 -0.253847 -0.185155  0.319895
  2H   2s         0.000002 -0.000011  0.000029 -1.335318 -1.472554 -1.231239
  2H   1pz       -0.006607 -0.017045 -0.009842 -0.021838 -0.018185  0.014781
  2H   1px        0.002871 -0.026707  0.016105  0.009135  0.007608 -0.006183
  2H   1py        0.012816  0.009641  0.027213 -0.013305 -0.011078  0.009005
  3H   1s         0.000001 -0.000000  0.000001  0.253847 -0.185155 -0.319895
  3H   2s        -0.000002 -0.000011  0.000029  1.335318 -1.472554  1.231239
  3H   1pz       -0.006607  0.017045  0.009842 -0.021838  0.018185  0.014781
  3H   1px        0.002871  0.026707 -0.016105  0.009135 -0.007608 -0.006183
  3H   1py        0.012816 -0.009641 -0.027213 -0.013305  0.011078  0.009005
                     12        13        14        15        16        17   
                   0.18841   0.36182   0.36182   0.47373   0.47375   0.50932
                   0.00000   0.00000   0.00000   0.00000   0.00000   0.00000
                  --------  --------  --------  --------  --------  --------
  0C   1s        -0.117656  0.000003 -0.000017  0.000015 -0.000042  0.135365
  0C   2s         0.803173 -0.000020  0.000101 -0.000079  0.000221 -0.722819
  0C   3s        -0.479265  0.000041 -0.000226  0.000238 -0.000656  2.155958
  0C   1pz       -0.086080  0.345313  0.133830  0.373523  0.207666 -0.374165
  0C   1px        0.035996  0.450108 -0.376475  0.574015 -0.359256  0.156345
  0C   1py       -0.052456 -0.257746 -0.478150 -0.219088 -0.587210 -0.228134
  0C   2pz        0.307600 -0.352071 -0.136472 -0.653785 -0.363649  1.131527
  0C   2px       -0.128656 -0.458926  0.383857 -1.004808  0.628924 -0.473025
  0C   2py        0.187421  0.262797  0.487502  0.383534  1.027809  0.689686
  0C   1dz2       0.025149 -0.049719 -0.019273  0.013171  0.007299  0.035334
  0C   1dxz      -0.025068 -0.025410  0.035954  0.008496 -0.009062 -0.035218
  0C   1dyz       0.036507  0.003938  0.032965  0.000180 -0.009393  0.051291
  0C   1dx2y2    -0.005878  0.002598 -0.037308 -0.002171  0.010338 -0.008257
  0C   1dxy      -0.015271 -0.031760  0.002443  0.008977  0.000556 -0.021457
  1C   1s        -0.117656 -0.000003  0.000017  0.000015 -0.000042  0.135365
  1C   2s         0.803173  0.000020 -0.000101 -0.000079  0.000221 -0.722819
  1C   3s        -0.479266 -0.000041  0.000226  0.000238 -0.000656  2.155958
  1C   1pz        0.086080  0.345313  0.133830 -0.373523 -0.207666  0.374165
  1C   1px       -0.035996  0.450108 -0.376475 -0.574015  0.359256 -0.156345
  1C   1py        0.052456 -0.257746 -0.478150  0.219088  0.587210  0.228134
  1C   2pz       -0.307601 -0.352071 -0.136472  0.653785  0.363649 -1.131526
  1C   2px        0.128656 -0.458926  0.383857  1.004808 -0.628924  0.473025
  1C   2py       -0.187421  0.262797  0.487502 -0.383534 -1.027809 -0.689686
  1C   1dz2       0.025149  0.049719  0.019273  0.013171  0.007299  0.035334
  1C   1dxz      -0.025068  0.025410 -0.035954  0.008496 -0.009062 -0.035218
  1C   1dyz       0.036507 -0.003938 -0.032965  0.000180 -0.009393  0.051291
  1C   1dx2y2    -0.005878 -0.002598  0.037308 -0.002171  0.010338 -0.008257
  1C   1dxy      -0.015271  0.031760 -0.002443  0.008977  0.000556 -0.021457
  2H   1s         0.373250  0.000006 -0.000029  0.000047 -0.000133  0.375843
  2H   2s        -0.548667 -0.000025  0.000124 -0.000230  0.000634 -2.040464
  2H   1pz        0.008138 -0.001690 -0.000659 -0.009825 -0.005495  0.090623
  2H   1px       -0.003405 -0.002204  0.001845 -0.015117  0.009472 -0.037901
  2H   1py        0.004958  0.001262  0.002338  0.005774  0.015449  0.055218
  3H   1s         0.373250 -0.000006  0.000029  0.000047 -0.000133  0.375843
  3H   2s        -0.548667  0.000025 -0.000124 -0.000230  0.000634 -2.040464
  3H   1pz       -0.008138 -0.001690 -0.000659  0.009825  0.005495 -0.090623
  3H   1px        0.003405 -0.002204  0.001845  0.015117 -0.009472  0.037901
  3H   1py       -0.004958  0.001262  0.002338 -0.005774 -0.015449 -0.055218
                     18        19        20        21        22        23   
                   0.56094   0.76638   0.79641   1.02907   1.02907   1.14783
                   0.00000   0.00000   0.00000   0.00000   0.00000   0.00000
                  --------  --------  --------  --------  --------  --------
  0C   1s         0.203741 -0.109080 -0.066136 -0.000001  0.000004 -0.078169
  0C   2s        -1.376990  0.492571  0.569675  0.000009 -0.000027  0.696703
  0C   3s         3.251746 -7.443276  1.356113  0.000012 -0.000023 12.830807
  0C   1pz       -0.154552 -0.689046 -0.219943  0.061171  0.034893 -0.261925
  0C   1px        0.064623  0.288236  0.092004  0.095244 -0.058134  0.109562
  0C   1py       -0.094189 -0.419794 -0.133997 -0.035015 -0.097171 -0.159580
  0C   2pz        0.607503  3.834570  1.813727 -0.065505 -0.037309 -6.920141
  0C   2px       -0.254093 -1.604029 -0.758697 -0.101957  0.062217  2.894743
  0C   2py        0.370150  2.336189  1.104999  0.037475  0.104056 -4.216059
  0C   1dz2       0.030357 -0.076341 -0.015208  0.264261  0.150704  0.081005
  0C   1dxz      -0.030251  0.076086  0.015158  0.173724 -0.181382 -0.080739
  0C   1dyz       0.044075 -0.110825 -0.022076  0.005625 -0.189353  0.117590
  0C   1dx2y2    -0.007101  0.017846  0.003553 -0.046162  0.208306 -0.018931
  0C   1dxy      -0.018435  0.046359  0.009236  0.181252  0.013055 -0.049190
  1C   1s        -0.203741  0.109080 -0.066136  0.000001 -0.000004  0.078169
  1C   2s         1.376990 -0.492571  0.569675 -0.000009  0.000027 -0.696703
  1C   3s        -3.251746  7.443276  1.356114 -0.000012  0.000023-12.830807
  1C   1pz       -0.154552 -0.689046  0.219943  0.061171  0.034893 -0.261925
  1C   1px        0.064623  0.288236 -0.092004  0.095244 -0.058134  0.109562
  1C   1py       -0.094189 -0.419794  0.133997 -0.035015 -0.097171 -0.159580
  1C   2pz        0.607503  3.834570 -1.813727 -0.065505 -0.037309 -6.920141
  1C   2px       -0.254093 -1.604029  0.758697 -0.101957  0.062217  2.894743
  1C   2py        0.370150  2.336189 -1.104999  0.037475  0.104056 -4.216059
  1C   1dz2      -0.030357  0.076341 -0.015208 -0.264261 -0.150704 -0.081005
  1C   1dxz       0.030251 -0.076086  0.015158 -0.173724  0.181382  0.080739
  1C   1dyz      -0.044075  0.110825 -0.022076 -0.005625  0.189353 -0.117590
  1C   1dx2y2     0.007101 -0.017846  0.003553  0.046162 -0.208306  0.018931
  1C   1dxy       0.018435 -0.046359  0.009236 -0.181252 -0.013055  0.049190
  2H   1s         0.123235 -0.114041 -0.939015  0.000004 -0.000009  1.338697
  2H   2s        -1.811577 -0.962429 -1.180358  0.000008 -0.000023  1.194730
  2H   1pz        0.061442  0.086310 -0.050469  0.228829  0.130499  0.138370
  2H   1px       -0.025700 -0.036106  0.021110  0.356274 -0.217451 -0.057884
  2H   1py        0.037436  0.052583 -0.030750 -0.130976 -0.363504  0.084298
  3H   1s        -0.123235  0.114041 -0.939015 -0.000004  0.000009 -1.338697
  3H   2s         1.811577  0.962429 -1.180358 -0.000008  0.000023 -1.194730
  3H   1pz        0.061442  0.086310  0.050469  0.228829  0.130499  0.138370
  3H   1px       -0.025700 -0.036106 -0.021110  0.356274 -0.217451 -0.057884
  3H   1py        0.037436  0.052583  0.030750 -0.130976 -0.363504  0.084298
                     24        25        26        27        28        29   
                   1.34094   1.34094   1.40700   1.40700   1.73565   1.73565
                   0.00000   0.00000   0.00000   0.00000   0.00000   0.00000
                  --------  --------  --------  --------  --------  --------
  0C   1s         0.000000  0.000000  0.000000 -0.000001 -0.000001 -0.000002
  0C   2s        -0.000001 -0.000001 -0.000001  0.000004  0.000007  0.000014
  0C   3s         0.000002  0.000003  0.000005 -0.000013 -0.000031 -0.000062
  0C   1pz       -0.000002 -0.000003  0.062353  0.034363 -0.000003 -0.000003
  0C   1px        0.000006  0.000004  0.095422 -0.060168  0.000011  0.000006
  0C   1py        0.000005  0.000002 -0.036830 -0.097711  0.000010  0.000004
  0C   2pz       -0.000001  0.000002  0.298734  0.164629  0.000012  0.000028
  0C   2px        0.000006  0.000004  0.457155 -0.288274 -0.000002 -0.000010
  0C   2py        0.000009  0.000004 -0.176447 -0.468161  0.000011  0.000019
  0C   1dz2      -0.203706 -0.008727 -0.169296 -0.093304  0.231214  0.006677
  0C   1dxz      -0.166188 -0.333986 -0.108690  0.116843  0.193813  0.376247
  0C   1dyz       0.271978 -0.212784 -0.001818  0.120363 -0.305152  0.245684
  0C   1dx2y2     0.218379 -0.491341  0.027398 -0.132777 -0.239970  0.560813
  0C   1dxy       0.503452  0.214297 -0.115285 -0.006594 -0.574491 -0.235136
  1C   1s         0.000000  0.000000  0.000000 -0.000001  0.000001  0.000002
  1C   2s        -0.000001 -0.000001 -0.000001  0.000004 -0.000007 -0.000014
  1C   3s         0.000002  0.000003  0.000005 -0.000013  0.000031  0.000062
  1C   1pz        0.000002  0.000003 -0.062353 -0.034363 -0.000003 -0.000003
  1C   1px       -0.000006 -0.000004 -0.095422  0.060168  0.000011  0.000006
  1C   1py       -0.000005 -0.000002  0.036830  0.097711  0.000010  0.000004
  1C   2pz        0.000001 -0.000002 -0.298734 -0.164629  0.000012  0.000028
  1C   2px       -0.000006 -0.000004 -0.457155  0.288274 -0.000002 -0.000010
  1C   2py       -0.000009 -0.000004  0.176447  0.468161  0.000011  0.000019
  1C   1dz2      -0.203706 -0.008727 -0.169296 -0.093304 -0.231214 -0.006677
  1C   1dxz      -0.166188 -0.333986 -0.108690  0.116843 -0.193813 -0.376247
  1C   1dyz       0.271978 -0.212784 -0.001818  0.120363  0.305152 -0.245684
  1C   1dx2y2     0.218379 -0.491341  0.027398 -0.132777  0.239970 -0.560813
  1C   1dxy       0.503452  0.214297 -0.115285 -0.006594  0.574491  0.235136
  2H   1s         0.000002  0.000004  0.000001 -0.000003 -0.000004 -0.000010
  2H   2s        -0.000003 -0.000005 -0.000005  0.000013 -0.000001 -0.000002
  2H   1pz        0.000003  0.000001 -0.357573 -0.197061  0.000009  0.000008
  2H   1px       -0.000011 -0.000007 -0.547203  0.345052 -0.000033 -0.000018
  2H   1py       -0.000012 -0.000006  0.211204  0.560359 -0.000031 -0.000014
  3H   1s         0.000002  0.000004  0.000001 -0.000003  0.000004  0.000010
  3H   2s        -0.000003 -0.000005 -0.000005  0.000013  0.000001  0.000002
  3H   1pz       -0.000003 -0.000001  0.357573  0.197061  0.000009  0.000008
  3H   1px        0.000011  0.000007  0.547203 -0.345052 -0.000033 -0.000018
  3H   1py        0.000012  0.000006 -0.211204 -0.560359 -0.000031 -0.000014
                     30        31        32        33        34        35   
                   1.79874   1.81875   1.81875   2.17349   2.66322   2.66323
                   0.00000   0.00000   0.00000   0.00000   0.00000   0.00000
                  --------  --------  --------  --------  --------  --------
  0C   1s         0.060309  0.000001 -0.000002 -0.017004  0.000001  0.000003
  0C   2s        -0.701011 -0.000005  0.000014  0.164053 -0.000006 -0.000016
  0C   3s        -0.187682  0.000009 -0.000033  0.976989 -0.000001 -0.000004
  0C   1pz       -0.094893 -0.124436 -0.072608  0.828034  0.111163 -0.072378
  0C   1px        0.039693 -0.196014  0.116999 -0.346372  0.185518  0.098787
  0C   1py       -0.057815  0.069667  0.199497  0.504476 -0.055103  0.186581
  0C   2pz       -0.434948 -0.028204 -0.016445 -0.283067 -0.005133  0.003340
  0C   2px        0.181945 -0.044422  0.026511  0.118409 -0.008565 -0.004560
  0C   2py       -0.264985  0.015787  0.045219 -0.172457  0.002544 -0.008614
  0C   1dz2       0.192029 -0.385308 -0.224823 -0.036069 -0.731824  0.476331
  0C   1dxz      -0.191399 -0.257353  0.263423  0.035950 -0.528327 -0.490458
  0C   1dyz       0.278766 -0.010993  0.277589 -0.052360 -0.048013 -0.541631
  0C   1dx2y2    -0.044891  0.070705 -0.304783  0.008430  0.167356  0.589104
  0C   1dxy      -0.116606 -0.265600 -0.021716  0.021904 -0.517158  0.067924
  1C   1s         0.060309 -0.000001  0.000002  0.017004  0.000001  0.000003
  1C   2s        -0.701011  0.000005 -0.000014 -0.164053 -0.000006 -0.000016
  1C   3s        -0.187682 -0.000009  0.000033 -0.976989 -0.000001 -0.000004
  1C   1pz        0.094893 -0.124436 -0.072608  0.828034 -0.111163  0.072378
  1C   1px       -0.039693 -0.196014  0.116999 -0.346372 -0.185518 -0.098787
  1C   1py        0.057815  0.069667  0.199497  0.504476  0.055103 -0.186581
  1C   2pz        0.434948 -0.028204 -0.016445 -0.283067  0.005133 -0.003340
  1C   2px       -0.181945 -0.044422  0.026511  0.118409  0.008565  0.004560
  1C   2py        0.264985  0.015787  0.045219 -0.172457 -0.002544  0.008614
  1C   1dz2       0.192029  0.385308  0.224823  0.036069 -0.731824  0.476331
  1C   1dxz      -0.191399  0.257353 -0.263423 -0.035950 -0.528327 -0.490458
  1C   1dyz       0.278766  0.010993 -0.277589  0.052360 -0.048013 -0.541631
  1C   1dx2y2    -0.044891 -0.070705  0.304783 -0.008430  0.167356  0.589104
  1C   1dxy      -0.116606  0.265600  0.021716 -0.021904 -0.517158  0.067924
  2H   1s         0.055698  0.000002 -0.000005 -0.377602  0.000008  0.000022
  2H   2s         0.586143 -0.000001  0.000003 -0.286646  0.000001  0.000003
  2H   1pz       -0.486092  0.332936  0.194254  0.762011  0.237658 -0.154717
  2H   1px        0.203332  0.524440 -0.313029 -0.318755  0.396608  0.211187
  2H   1py       -0.296153 -0.186395 -0.533763  0.464251 -0.117797  0.398896
  3H   1s         0.055698 -0.000002  0.000005  0.377602  0.000008  0.000022
  3H   2s         0.586143  0.000001 -0.000003  0.286646  0.000001  0.000003
  3H   1pz        0.486092  0.332936  0.194254  0.762011 -0.237658  0.154717
  3H   1px       -0.203332  0.524440 -0.313029 -0.318755 -0.396608 -0.211187
  3H   1py        0.296153 -0.186395 -0.533763  0.464251  0.117797 -0.398896
                     36        37   
                   2.93008   3.77195
                   0.00000   0.00000
                  --------  --------
  0C   1s         0.112224  0.271840
  0C   2s        -0.537738 -2.202034
  0C   3s        -0.501086  1.360235
  0C   1pz       -0.741739  0.549510
  0C   1px        0.310271 -0.229863
  0C   1py       -0.451904  0.334787
  0C   2pz       -0.187182 -1.072726
  0C   2px        0.078298  0.448729
  0C   2py       -0.114041 -0.653553
  0C   1dz2      -0.411665 -0.852866
  0C   1dxz       0.410323  0.850063
  0C   1dyz      -0.597581 -1.238073
  0C   1dx2y2     0.096210  0.199354
  0C   1dxy       0.249979  0.517893
  1C   1s         0.112224 -0.271840
  1C   2s        -0.537738  2.202034
  1C   3s        -0.501086 -1.360235
  1C   1pz        0.741739  0.549510
  1C   1px       -0.310271 -0.229863
  1C   1py        0.451904  0.334787
  1C   2pz        0.187182 -1.072726
  1C   2px       -0.078298  0.448729
  1C   2py        0.114041 -0.653553
  1C   1dz2      -0.411665  0.852866
  1C   1dxz       0.410323 -0.850063
  1C   1dyz      -0.597581  1.238073
  1C   1dx2y2     0.096210 -0.199354
  1C   1dxy       0.249979 -0.517893
  2H   1s         1.030071  1.371290
  2H   2s         0.329250  0.388241
  2H   1pz       -0.854245 -0.803528
  2H   1px        0.357329  0.336119
  2H   1py       -0.520453 -0.489547
  3H   1s         1.030071 -1.371290
  3H   2s         0.329250 -0.388241
  3H   1pz        0.854245 -0.803528
  3H   1px       -0.357329  0.336119
  3H   1py        0.520453 -0.489547
--------------
SCF ITERATIONS
--------------
               ***  Starting incremental Fock matrix formation  ***

                         ----------------------------
                         !        ITERATION     0   !
                         ----------------------------
   Total Energy        :     -77.195635743915 Eh
   Energy Change       :     -77.195635743915 Eh
   MAX-DP              :       0.050071785833
   RMS-DP              :       0.004122873961
   Actual Damping      :       0.7000
   Actual Level Shift  :       0.2500 Eh
   Int. Num. El.       :    13.99999313 (UP=    6.99999656 DN=    6.99999656)
   Exchange            :   -11.22253496
   Correlation         :    -0.44212319


                         ----------------------------
                         !        ITERATION     1   !
                         ----------------------------
   Total Energy        :     -77.220897231622 Eh
   Energy Change       :      -0.025261487707 Eh
   MAX-DP              :       0.032672552739
   RMS-DP              :       0.002925277512
   Actual Damping      :       0.7000
   Actual Level Shift  :       0.2500 Eh
   Int. Num. El.       :    13.99999299 (UP=    6.99999650 DN=    6.99999650)
   Exchange            :   -11.13482322
   Correlation         :    -0.43852216

                               ***Turning on DIIS***

                         ----------------------------
                         !        ITERATION     2   !
                         ----------------------------
   Total Energy        :     -77.231494899438 Eh
   Energy Change       :      -0.010597667816 Eh
   MAX-DP              :       0.046585500698
   RMS-DP              :       0.004601708113
   Actual Damping      :       0.0000
   Actual Level Shift  :       0.2500 Eh
   Int. Num. El.       :    13.99999291 (UP=    6.99999646 DN=    6.99999646)
   Exchange            :   -11.07321280
   Correlation         :    -0.43610344
   DIIS-Error          :       0.022103358094


                         ----------------------------
                         !        ITERATION     3   !
                         ----------------------------
   Total Energy        :     -77.245356236652 Eh
   Energy Change       :      -0.013861337214 Eh
   MAX-DP              :       0.025410286212
   RMS-DP              :       0.002262019900
   Actual Damping      :       0.0000
   Actual Level Shift  :       0.2500 Eh
   Int. Num. El.       :    13.99999280 (UP=    6.99999640 DN=    6.99999640)
   Exchange            :   -10.97935399
   Correlation         :    -0.43281599
   DIIS-Error          :       0.032587290884
   DIIS coefficients:
      0.56043   0.43957


                         ----------------------------
                         !        ITERATION     4   !
                         ----------------------------
   Total Energy        :     -77.250033044724 Eh
   Energy Change       :      -0.004676808073 Eh
   MAX-DP              :       0.004826199816
   RMS-DP              :       0.000542685603
   Actual Damping      :       0.0000
   Actual Level Shift  :       0.2500 Eh
   Int. Num. El.       :    13.99999286 (UP=    6.99999643 DN=    6.99999643)
   Exchange            :   -11.02237587
   Correlation         :    -0.43445187
   DIIS-Error          :       0.006416952399
   DIIS coefficients:
      0.09782  -0.10352   1.00571

                      *** Initiating the SOSCF procedure ***
                           *** Shutting down DIIS ***
                      *** Re-Reading the Fockian *** 
                      *** Removing any level shift *** 

                         ----------------------------
                         !        ITERATION     5   !
                         ----------------------------
   Total Energy        :     -77.250215241610 Eh
   Energy Change       :      -0.000182196886 Eh
   MAX-DP              :       0.001398687733
   RMS-DP              :       0.000145595526
   Orbital gradient    :       0.000708220985
   Orbital Rotation    :       0.000708220985
   Actual Damping      :       0.0000
   Int. Num. El.       :    13.99999286 (UP=    6.99999643 DN=    6.99999643)
   Exchange            :   -11.03166289
   Correlation         :    -0.43481388

               *** Restarting incremental Fock matrix formation ***

                         ----------------------------
                         !        ITERATION     6   !
                         ----------------------------
   Total Energy        :     -77.250221518424 Eh
   Energy Change       :      -0.000006276814 Eh
   MAX-DP              :       0.000721752617
   RMS-DP              :       0.000073128021
   Orbital gradient    :       0.000273904980
   Orbital Rotation    :       0.000513655976
   Actual Damping      :       0.0000
   Int. Num. El.       :    13.99999286 (UP=    6.99999643 DN=    6.99999643)
   Exchange            :   -11.03312400
   Correlation         :    -0.43488295


                         ----------------------------
                         !        ITERATION     7   !
                         ----------------------------
   Total Energy        :     -77.250221595984 Eh
   Energy Change       :      -0.000000077560 Eh
   MAX-DP              :       0.000264270639
   RMS-DP              :       0.000022267831
   Orbital gradient    :       0.000198346575
   Orbital Rotation    :       0.000141415760
   Actual Damping      :       0.0000
   Int. Num. El.       :    13.99999286 (UP=    6.99999643 DN=    6.99999643)
   Exchange            :   -11.03394308
   Correlation         :    -0.43492186


                         ----------------------------
                         !        ITERATION     8   !
                         ----------------------------
   Total Energy        :     -77.250221885366 Eh
   Energy Change       :      -0.000000289381 Eh
   MAX-DP              :       0.000028287873
   RMS-DP              :       0.000003643459
   Orbital gradient    :       0.000008838002
   Orbital Rotation    :       0.000012650938
   Actual Damping      :       0.0000
   Int. Num. El.       :    13.99999286 (UP=    6.99999643 DN=    6.99999643)
   Exchange            :   -11.03352531
   Correlation         :    -0.43490544

                  ***Gradient check signals convergence***
              ***Rediagonalizing the Fockian in SOSCF/NRSCF***

               *****************************************************
               *                     SUCCESS                       *
               *           SCF CONVERGED AFTER   9 CYCLES          *
               *****************************************************

Setting up the final grid:

General Integration Accuracy     IntAcc      ...  5.010
Radial Grid Type                 RadialGrid  ... Gauss-Chebyshev
Angular Grid (max. acc.)         AngularGrid ... Lebedev-434
Angular grid pruning method      GridPruning ... 3 (G Style)
Weight generation scheme         WeightScheme... Becke
Basis function cutoff            BFCut       ...    1.0000e-11
Integration weight cutoff        WCut        ...    1.0000e-14
Grids for H and He will be reduced by one unit

# of grid points (after initial pruning)     ...  34780 (   0.0 sec)
# of grid points (after weights+screening)   ...  34294 (   0.0 sec)
nearest neighbour list constructed           ...    0.0 sec
Grid point re-assignment to atoms done       ...    0.0 sec
Grid point division into batches done        ...    0.3 sec
Reduced shell lists constructed in    0.3 sec

Total number of grid points                  ...    34294
Total number of batches                      ...      538
Average number of points per batch           ...       63
Average number of grid points per atom       ...     8574
Average number of shells per batch           ...    16.00 (88.89%)
Average number of basis functions per batch  ...    33.85 (89.09%)
Average number of large shells per batch     ...    14.76 (92.28%)
Average number of large basis fcns per batch ...    31.04 (91.70%)
Maximum spatial batch extension              ...  21.76, 21.15, 11.95 au
Average spatial batch extension              ...   0.79,  0.73,  0.55 au

Final grid set up in    0.5 sec
Final integration                            ... done (   0.1 sec)
Change in XC energy                          ...     0.000041814
Integrated number of electrons               ...    13.999997475
Previous integrated no of electrons          ...    13.999992861

----------------
TOTAL SCF ENERGY
----------------

Total Energy       :          -77.25018007 Eh           -2102.08427 eV

Components:
Nuclear Repulsion  :           24.76919334 Eh             674.00402 eV
Electronic Energy  :         -102.01937341 Eh           -2776.08828 eV
One Electron Energy:         -151.82838156 Eh           -4131.46030 eV
Two Electron Energy:           49.80900815 Eh            1355.37202 eV

Virial components:
Potential Energy   :         -153.66439686 Eh           -4181.42082 eV
Kinetic Energy     :           76.41421679 Eh            2079.33655 eV
Virial Ratio       :            2.01093989


DFT components:
N(Alpha)           :        6.999998737566 electrons
N(Beta)            :        6.999998737566 electrons
N(Total)           :       13.999997475131 electrons
E(X)               :      -11.033501496864 Eh       
E(C)               :       -0.434881804186 Eh       
E(XC)              :      -11.468383301050 Eh       
DFET-embed. en.    :        0.000000000000 Eh       

---------------
SCF CONVERGENCE
---------------

  Last Energy change         ...   -6.0686e-10  Tolerance :   1.0000e-08
  Last MAX-Density change    ...    6.8108e-06  Tolerance :   1.0000e-07
  Last RMS-Density change    ...    5.4709e-07  Tolerance :   5.0000e-09
  Last Orbital Gradient      ...    2.4422e-06  Tolerance :   1.0000e-05
  Last Orbital Rotation      ...    2.5177e-06  Tolerance :   1.0000e-05

             **** THE GBW FILE WAS UPDATED (HCCH.gbw) ****
             **** DENSITY FILE WAS UPDATED (HCCH.scfp) ****
             **** ENERGY FILE WAS UPDATED (HCCH.en.tmp) ****
             **** THE GBW FILE WAS UPDATED (HCCH.gbw) ****
             **** DENSITY FILE WAS UPDATED (HCCH.scfp) ****
----------------
ORBITAL ENERGIES
----------------

  NO   OCC          E(Eh)            E(eV) 
   0   2.0000      -9.914024      -269.7743 
   1   2.0000      -9.911977      -269.7186 
   2   2.0000      -0.668484       -18.1904 
   3   2.0000      -0.509474       -13.8635 
   4   2.0000      -0.442198       -12.0328 
   5   2.0000      -0.255026        -6.9396 
   6   2.0000      -0.255025        -6.9396 
   7   0.0000       0.006236         0.1697 
   8   0.0000       0.006241         0.1698 
   9   0.0000       0.063221         1.7203 
  10   0.0000       0.090994         2.4761 
  11   0.0000       0.239964         6.5298 
  12   0.0000       0.259965         7.0740 
  13   0.0000       0.446430        12.1480 
  14   0.0000       0.446431        12.1480 
  15   0.0000       0.558595        15.2001 
  16   0.0000       0.558616        15.2007 
  17   0.0000       0.574623        15.6363 
  18   0.0000       0.621138        16.9020 
  19   0.0000       0.858336        23.3565 
  20   0.0000       0.893464        24.3124 
  21   0.0000       1.126867        30.6636 
  22   0.0000       1.126869        30.6637 
  23   0.0000       1.214629        33.0517 
  24   0.0000       1.469018        39.9740 
  25   0.0000       1.469019        39.9740 
  26   0.0000       1.473304        40.0906 
  27   0.0000       1.473307        40.0907 
  28   0.0000       1.854755        50.4705 
  29   0.0000       1.854757        50.4705 
  30   0.0000       1.904346        51.8199 
  31   0.0000       1.925082        52.3841 
  32   0.0000       1.925088        52.3843 
  33   0.0000       2.276182        61.9381 
  34   0.0000       2.784970        75.7829 
  35   0.0000       2.784978        75.7831 
  36   0.0000       3.056635        83.1753 
  37   0.0000       3.914845       106.5283 
------------------
MOLECULAR ORBITALS
------------------
                      0         1         2         3         4         5   
                  -9.91402  -9.91198  -0.66848  -0.50947  -0.44220  -0.25503
                   2.00000   2.00000   2.00000   2.00000   2.00000   2.00000
                  --------  --------  --------  --------  --------  --------
  0C   1s         0.698818 -0.698447 -0.220725 -0.144685  0.001564 -0.000000
  0C   2s         0.028459 -0.041252  0.412037  0.291872  0.004937  0.000003
  0C   3s        -0.007792  0.014480  0.132752  0.410114 -0.010253 -0.000037
  0C   1pz        0.003127  0.002926 -0.117609  0.162752  0.309920  0.193689
  0C   1px       -0.001308 -0.001224  0.049197 -0.068080 -0.129641  0.381336
  0C   1py        0.001905  0.001782 -0.071653  0.099157  0.188818 -0.056091
  0C   2pz        0.002113  0.007308 -0.003210 -0.109004  0.033354  0.109358
  0C   2px       -0.000884 -0.003057  0.001341  0.045596 -0.013951  0.215276
  0C   2py        0.001288  0.004452 -0.001957 -0.066411  0.020321 -0.031659
  0C   1dz2       0.001840 -0.002827  0.008380  0.000255  0.000441 -0.011124
  0C   1dxz      -0.001833  0.002818 -0.008353 -0.000253 -0.000439 -0.009958
  0C   1dyz       0.002670 -0.004104  0.012166  0.000370  0.000641 -0.002053
  0C   1dx2y2    -0.000430  0.000661 -0.001959 -0.000059 -0.000103  0.004156
  0C   1dxy      -0.001117  0.001717 -0.005089 -0.000155 -0.000268 -0.008482
  1C   1s         0.698818  0.698447 -0.220725  0.144685  0.001564  0.000000
  1C   2s         0.028459  0.041252  0.412037 -0.291872  0.004937 -0.000003
  1C   3s        -0.007792 -0.014480  0.132752 -0.410114 -0.010253  0.000037
  1C   1pz       -0.003127  0.002926  0.117609  0.162752 -0.309920  0.193689
  1C   1px        0.001308 -0.001224 -0.049197 -0.068080  0.129641  0.381336
  1C   1py       -0.001905  0.001782  0.071653  0.099157 -0.188818 -0.056091
  1C   2pz       -0.002113  0.007308  0.003210 -0.109004 -0.033354  0.109358
  1C   2px        0.000884 -0.003057 -0.001341  0.045596  0.013951  0.215276
  1C   2py       -0.001288  0.004452  0.001957 -0.066411 -0.020321 -0.031659
  1C   1dz2       0.001840  0.002827  0.008380 -0.000255  0.000441  0.011124
  1C   1dxz      -0.001833 -0.002818 -0.008353  0.000253 -0.000439  0.009958
  1C   1dyz       0.002670  0.004104  0.012166 -0.000370  0.000641  0.002053
  1C   1dx2y2    -0.000430 -0.000661 -0.001959  0.000059 -0.000103 -0.004156
  1C   1dxy      -0.001117 -0.001717 -0.005089  0.000155 -0.000268  0.008482
  2H   1s        -0.006537  0.004527  0.098456  0.303034  0.301107 -0.000001
  2H   2s         0.001355 -0.009668 -0.000128  0.105428  0.131003  0.000003
  2H   1pz        0.002825 -0.002924 -0.010902 -0.017933 -0.010495  0.007300
  2H   1px       -0.001182  0.001223  0.004561  0.007501  0.004390  0.014372
  2H   1py        0.001721 -0.001781 -0.006642 -0.010925 -0.006394 -0.002114
  3H   1s        -0.006537 -0.004527  0.098456 -0.303034  0.301107  0.000001
  3H   2s         0.001355  0.009668 -0.000128 -0.105428  0.131003 -0.000003
  3H   1pz       -0.002825 -0.002924  0.010902 -0.017933  0.010495  0.007300
  3H   1px        0.001182  0.001223 -0.004561  0.007501 -0.004390  0.014372
  3H   1py       -0.001721 -0.001781  0.006642 -0.010925  0.006394 -0.002114
                      6         7         8         9        10        11   
                  -0.25503   0.00624   0.00624   0.06322   0.09099   0.23996
                   2.00000   0.00000   0.00000   0.00000   0.00000   0.00000
                  --------  --------  --------  --------  --------  --------
  0C   1s         0.000000 -0.000000  0.000001 -0.121313  0.049941 -0.073083
  0C   2s        -0.000005  0.000005 -0.000012  0.243167 -0.120430  0.129063
  0C   3s         0.000058 -0.000029  0.000076  0.111541 -1.296428  6.305823
  0C   1pz        0.167971  0.226969  0.128166  0.075720 -0.210233 -0.081602
  0C   1px       -0.140010  0.351599 -0.216683 -0.031669  0.087918  0.034153
  0C   1py       -0.371835 -0.131142 -0.359121  0.046138 -0.128108 -0.049698
  0C   2pz        0.094809  0.356926  0.201553  0.917532 -0.551541 -2.893915
  0C   2px       -0.079034  0.552926 -0.340741 -0.383813  0.230708  1.210528
  0C   2py       -0.209929 -0.206237 -0.564713  0.558998 -0.336029 -1.763119
  0C   1dz2      -0.009648  0.022645  0.012786 -0.012968  0.005839 -0.027634
  0C   1dxz       0.006973  0.014784 -0.015569  0.012926 -0.005822  0.027543
  0C   1dyz       0.008936  0.000411 -0.016189 -0.018826  0.008475 -0.040116
  0C   1dx2y2    -0.009454 -0.003870  0.017824  0.003032 -0.001363  0.006460
  0C   1dxy      -0.002329  0.015499  0.001049  0.007875 -0.003546  0.016780
  1C   1s        -0.000000 -0.000000  0.000001  0.121313  0.049941  0.073083
  1C   2s         0.000005  0.000005 -0.000012 -0.243167 -0.120430 -0.129063
  1C   3s        -0.000058 -0.000029  0.000076 -0.111541 -1.296430 -6.305823
  1C   1pz        0.167971 -0.226969 -0.128166  0.075720  0.210233 -0.081602
  1C   1px       -0.140010 -0.351599  0.216683 -0.031669 -0.087918  0.034153
  1C   1py       -0.371835  0.131142  0.359121  0.046138  0.128108 -0.049698
  1C   2pz        0.094809 -0.356926 -0.201553  0.917532  0.551540 -2.893915
  1C   2px       -0.079034 -0.552926  0.340741 -0.383813 -0.230707  1.210528
  1C   2py       -0.209929  0.206237  0.564713  0.558998  0.336028 -1.763119
  1C   1dz2       0.009648  0.022645  0.012786  0.012968  0.005839  0.027634
  1C   1dxz      -0.006973  0.014784 -0.015569 -0.012926 -0.005822 -0.027543
  1C   1dyz      -0.008936  0.000411 -0.016189  0.018826  0.008475  0.040116
  1C   1dx2y2     0.009454 -0.003870  0.017824 -0.003032 -0.001363 -0.006460
  1C   1dxy       0.002329  0.015499  0.001049 -0.007875 -0.003546 -0.016780
  2H   1s         0.000001  0.000001 -0.000003 -0.175706  0.087314 -0.345200
  2H   2s        -0.000004  0.000031 -0.000080 -1.612068  1.696379  1.026703
  2H   1pz        0.006330  0.018069  0.010203 -0.018148  0.011224 -0.025869
  2H   1px       -0.005277  0.027991 -0.017251  0.007592 -0.004697  0.010822
  2H   1py       -0.014014 -0.010440 -0.028591 -0.011056  0.006836 -0.015760
  3H   1s        -0.000001  0.000001 -0.000003  0.175706  0.087314  0.345200
  3H   2s         0.000004  0.000031 -0.000080  1.612067  1.696379 -1.026703
  3H   1pz        0.006330 -0.018069 -0.010203 -0.018148 -0.011224 -0.025869
  3H   1px       -0.005277 -0.027991  0.017251  0.007592  0.004697  0.010822
  3H   1py       -0.014014  0.010440  0.028591 -0.011056 -0.006836 -0.015760
                     12        13        14        15        16        17   
                   0.25997   0.44643   0.44643   0.55859   0.55862   0.57462
                   0.00000   0.00000   0.00000   0.00000   0.00000   0.00000
                  --------  --------  --------  --------  --------  --------
  0C   1s        -0.119549  0.000006 -0.000023 -0.000037  0.000100 -0.136943
  0C   2s         0.808980 -0.000034  0.000126  0.000187 -0.000507  0.703095
  0C   3s        -0.693278  0.000064 -0.000255 -0.000545  0.001467 -2.056926
  0C   1pz       -0.120132  0.353549  0.165173 -0.392689 -0.217432  0.399212
  0C   1px        0.050234  0.499884 -0.363903 -0.602075  0.378659 -0.166573
  0C   1py       -0.073209 -0.237092 -0.520947  0.231447  0.616116  0.243641
  0C   2pz        0.196096 -0.335286 -0.156674  0.630720  0.349624 -1.114759
  0C   2px       -0.082010 -0.474081  0.345128  0.967265 -0.608446  0.465632
  0C   2py        0.119490  0.224858  0.494035 -0.371887 -0.989586 -0.679845
  0C   1dz2       0.020652 -0.041241 -0.019273 -0.025210 -0.013900 -0.034244
  0C   1dxz      -0.020586 -0.023708  0.029167 -0.016203  0.017357  0.034143
  0C   1dyz       0.029977  0.001463  0.028301 -0.000308  0.017964 -0.049695
  0C   1dx2y2    -0.004826  0.004354 -0.031627  0.004109 -0.019775  0.007990
  0C   1dxy      -0.012540 -0.027192  0.000259 -0.017163 -0.001026  0.020796
  1C   1s        -0.119549 -0.000006  0.000023 -0.000037  0.000100 -0.136943
  1C   2s         0.808980  0.000034 -0.000126  0.000187 -0.000507  0.703096
  1C   3s        -0.693278 -0.000064  0.000255 -0.000545  0.001467 -2.056928
  1C   1pz        0.120132  0.353549  0.165173  0.392689  0.217432 -0.399212
  1C   1px       -0.050234  0.499884 -0.363903  0.602075 -0.378659  0.166573
  1C   1py        0.073209 -0.237092 -0.520947 -0.231447 -0.616116 -0.243641
  1C   2pz       -0.196096 -0.335286 -0.156674 -0.630720 -0.349624  1.114758
  1C   2px        0.082010 -0.474081  0.345128 -0.967265  0.608446 -0.465631
  1C   2py       -0.119490  0.224858  0.494035  0.371887  0.989586  0.679845
  1C   1dz2       0.020652  0.041241  0.019273 -0.025210 -0.013900 -0.034244
  1C   1dxz      -0.020586  0.023708 -0.029167 -0.016203  0.017357  0.034143
  1C   1dyz       0.029977 -0.001463 -0.028301 -0.000308  0.017964 -0.049695
  1C   1dx2y2    -0.004826 -0.004354  0.031627  0.004109 -0.019775  0.007990
  1C   1dxy      -0.012540  0.027192 -0.000259 -0.017163 -0.001026  0.020796
  2H   1s         0.412493  0.000011 -0.000039 -0.000107  0.000294 -0.371734
  2H   2s        -0.300007 -0.000041  0.000149  0.000517 -0.001393  1.931351
  2H   1pz        0.012904  0.001342  0.000619  0.004753  0.002724 -0.105041
  2H   1px       -0.005399  0.001894 -0.001376  0.007342 -0.004645  0.043932
  2H   1py        0.007861 -0.000897 -0.001979 -0.002835 -0.007461 -0.064003
  3H   1s         0.412493 -0.000011  0.000039 -0.000107  0.000294 -0.371734
  3H   2s        -0.300007  0.000041 -0.000149  0.000517 -0.001393  1.931351
  3H   1pz       -0.012904  0.001342  0.000619 -0.004753 -0.002724  0.105041
  3H   1px        0.005399  0.001894 -0.001376 -0.007342  0.004645 -0.043932
  3H   1py       -0.007861 -0.000897 -0.001979  0.002835  0.007461  0.064003
                     18        19        20        21        22        23   
                   0.62114   0.85834   0.89346   1.12687   1.12687   1.21463
                   0.00000   0.00000   0.00000   0.00000   0.00000   0.00000
                  --------  --------  --------  --------  --------  --------
  0C   1s         0.208662 -0.069895 -0.110911  0.000001  0.000004 -0.092820
  0C   2s        -1.361964  0.590979  0.464149 -0.000008 -0.000029  0.762146
  0C   3s         2.941026  1.319085 -8.566665 -0.000019 -0.000028 11.937883
  0C   1pz       -0.190022 -0.226851 -0.628592 -0.046156  0.021465 -0.308284
  0C   1px        0.079450  0.094896  0.262950 -0.065116 -0.047595  0.128953
  0C   1py       -0.115810 -0.138203 -0.382961  0.031057 -0.067889 -0.187825
  0C   2pz        0.703095  1.806652  4.387076  0.064993 -0.030162 -6.482472
  0C   2px       -0.294071 -0.755741 -1.835148  0.091653  0.066975  2.711664
  0C   2py        0.428398  1.100684  2.672799 -0.043705  0.095599 -3.949411
  0C   1dz2       0.033100 -0.016203 -0.095825 -0.253891  0.118018  0.064399
  0C   1dxz      -0.032985  0.016150  0.095506 -0.145466 -0.179637 -0.064189
  0C   1dyz       0.048057 -0.023520 -0.139109  0.009316 -0.174096  0.093483
  0C   1dx2y2    -0.007742  0.003786  0.022400  0.026414  0.194579 -0.015050
  0C   1dxy      -0.020100  0.009840  0.058190 -0.167235 -0.001883 -0.039106
  1C   1s        -0.208662 -0.069895  0.110911 -0.000001 -0.000004  0.092820
  1C   2s         1.361963  0.590979 -0.464149  0.000008  0.000029 -0.762146
  1C   3s        -2.941026  1.319089  8.566664  0.000019  0.000028-11.937883
  1C   1pz       -0.190022  0.226850 -0.628593 -0.046156  0.021465 -0.308284
  1C   1px        0.079450 -0.094896  0.262950 -0.065116 -0.047595  0.128953
  1C   1py       -0.115810  0.138202 -0.382961  0.031057 -0.067889 -0.187825
  1C   2pz        0.703095 -1.806650  4.387077  0.064993 -0.030162 -6.482472
  1C   2px       -0.294071  0.755740 -1.835148  0.091653  0.066975  2.711664
  1C   2py        0.428398 -1.100682  2.672799 -0.043705  0.095599 -3.949411
  1C   1dz2      -0.033100 -0.016203  0.095825  0.253891 -0.118018 -0.064399
  1C   1dxz       0.032985  0.016150 -0.095506  0.145466  0.179637  0.064189
  1C   1dyz      -0.048057 -0.023520  0.139109 -0.009316  0.174096 -0.093483
  1C   1dx2y2     0.007742  0.003786 -0.022400 -0.026414 -0.194579  0.015050
  1C   1dxy       0.020100  0.009840 -0.058190  0.167235  0.001883  0.039106
  2H   1s         0.134126 -0.929845 -0.300150 -0.000004 -0.000011  1.307940
  2H   2s        -1.768327 -1.165982 -0.968158 -0.000007 -0.000022  1.104692
  2H   1pz        0.076718 -0.055636  0.079184 -0.257990  0.119924  0.164599
  2H   1px       -0.032090  0.023271 -0.033125 -0.363941 -0.265998 -0.068857
  2H   1py        0.046742 -0.033898  0.048240  0.173575 -0.379480  0.100277
  3H   1s        -0.134125 -0.929845  0.300150  0.000004  0.000011 -1.307940
  3H   2s         1.768327 -1.165981  0.968159  0.000007  0.000022 -1.104692
  3H   1pz        0.076718  0.055636  0.079184 -0.257990  0.119924  0.164599
  3H   1px       -0.032090 -0.023271 -0.033125 -0.363941 -0.265998 -0.068857
  3H   1py        0.046742  0.033898  0.048240  0.173575 -0.379480  0.100277
                     24        25        26        27        28        29   
                   1.46902   1.46902   1.47330   1.47331   1.85476   1.85476
                   0.00000   0.00000   0.00000   0.00000   0.00000   0.00000
                  --------  --------  --------  --------  --------  --------
  0C   1s        -0.000000 -0.000000 -0.000000  0.000001  0.000001 -0.000002
  0C   2s         0.000000  0.000001  0.000002 -0.000005 -0.000004  0.000013
  0C   3s        -0.000001 -0.000002 -0.000006  0.000014  0.000014 -0.000054
  0C   1pz        0.000009  0.000006 -0.067001 -0.037440  0.000003 -0.000003
  0C   1px       -0.000035 -0.000026 -0.103249  0.064258 -0.000012  0.000009
  0C   1py       -0.000037 -0.000023  0.039085  0.105569 -0.000013  0.000008
  0C   2pz        0.000032  0.000014 -0.288674 -0.161307 -0.000005  0.000024
  0C   2px       -0.000132 -0.000098 -0.444839  0.276867 -0.000001 -0.000008
  0C   2py       -0.000144 -0.000092  0.168391  0.454873 -0.000007  0.000018
  0C   1dz2       0.200760  0.035506  0.152175  0.085123 -0.227548  0.041533
  0C   1dxz       0.120736  0.353016  0.098611 -0.104686 -0.134748  0.401215
  0C   1dyz      -0.297627  0.175082  0.002288 -0.108606  0.338764  0.196761
  0C   1dx2y2    -0.281307  0.458224 -0.025426  0.119615  0.321953  0.518115
  0C   1dxy      -0.470789 -0.278811  0.103998  0.006340  0.532369 -0.319234
  1C   1s        -0.000000 -0.000000 -0.000000  0.000001 -0.000001  0.000002
  1C   2s         0.000000  0.000001  0.000002 -0.000005  0.000004 -0.000013
  1C   3s        -0.000001 -0.000002 -0.000006  0.000014 -0.000014  0.000054
  1C   1pz       -0.000009 -0.000006  0.067001  0.037440  0.000003 -0.000003
  1C   1px        0.000035  0.000026  0.103249 -0.064258 -0.000012  0.000009
  1C   1py        0.000037  0.000023 -0.039085 -0.105569 -0.000013  0.000008
  1C   2pz       -0.000032 -0.000014  0.288674  0.161307 -0.000005  0.000024
  1C   2px        0.000132  0.000098  0.444839 -0.276867 -0.000001 -0.000008
  1C   2py        0.000144  0.000092 -0.168391 -0.454873 -0.000007  0.000018
  1C   1dz2       0.200760  0.035506  0.152175  0.085123  0.227548 -0.041533
  1C   1dxz       0.120736  0.353016  0.098611 -0.104686  0.134748 -0.401215
  1C   1dyz      -0.297627  0.175082  0.002288 -0.108606 -0.338764 -0.196761
  1C   1dx2y2    -0.281307  0.458224 -0.025426  0.119615 -0.321953 -0.518115
  1C   1dxy      -0.470789 -0.278811  0.103998  0.006340 -0.532369  0.319234
  2H   1s        -0.000001 -0.000004 -0.000001  0.000003  0.000002 -0.000010
  2H   2s         0.000001  0.000003  0.000005 -0.000013  0.000001 -0.000003
  2H   1pz       -0.000041 -0.000019  0.361605  0.202064 -0.000009  0.000010
  2H   1px        0.000168  0.000126  0.557232 -0.346814  0.000035 -0.000027
  2H   1py        0.000183  0.000117 -0.210938 -0.569781  0.000034 -0.000021
  3H   1s        -0.000001 -0.000004 -0.000001  0.000003 -0.000002  0.000010
  3H   2s         0.000001  0.000003  0.000005 -0.000013 -0.000001  0.000003
  3H   1pz        0.000041  0.000019 -0.361605 -0.202064 -0.000009  0.000010
  3H   1px       -0.000168 -0.000126 -0.557232  0.346814  0.000035 -0.000027
  3H   1py       -0.000183 -0.000117  0.210938  0.569781  0.000034 -0.000021
                     30        31        32        33        34        35   
                   1.90435   1.92508   1.92509   2.27618   2.78497   2.78498
                   0.00000   0.00000   0.00000   0.00000   0.00000   0.00000
                  --------  --------  --------  --------  --------  --------
  0C   1s         0.063855  0.000001 -0.000002  0.020737 -0.000001  0.000003
  0C   2s        -0.718331 -0.000004  0.000015 -0.196533  0.000006 -0.000018
  0C   3s        -0.184427  0.000008 -0.000030 -0.790922  0.000002 -0.000005
  0C   1pz       -0.133724 -0.126624 -0.065374 -0.840402 -0.120914 -0.070432
  0C   1px        0.055936 -0.187657  0.125575  0.351545 -0.190285  0.113805
  0C   1py       -0.081473  0.078997  0.193512 -0.512011  0.067835  0.193693
  0C   2pz       -0.422284 -0.026816 -0.013834  0.178035  0.003748  0.002181
  0C   2px        0.176648 -0.039737  0.026587 -0.074473  0.005897 -0.003525
  0C   2py       -0.257270  0.016727  0.040983  0.108467 -0.002102 -0.006002
  0C   1dz2       0.178820 -0.411429 -0.212415  0.013168  0.757649  0.441171
  0C   1dxz      -0.178231 -0.252655  0.286826 -0.013123  0.505354 -0.518194
  0C   1dyz       0.259589  0.003466  0.288327  0.019114  0.021133 -0.545556
  0C   1dx2y2    -0.041803  0.056973 -0.319709 -0.003076 -0.138444  0.599115
  0C   1dxy      -0.108584 -0.276473 -0.008281 -0.007998  0.522005  0.042321
  1C   1s         0.063855 -0.000001  0.000002 -0.020737 -0.000001  0.000003
  1C   2s        -0.718331  0.000004 -0.000015  0.196533  0.000006 -0.000018
  1C   3s        -0.184427 -0.000008  0.000030  0.790922  0.000002 -0.000005
  1C   1pz        0.133724 -0.126624 -0.065374 -0.840402  0.120914  0.070432
  1C   1px       -0.055936 -0.187657  0.125575  0.351545  0.190285 -0.113805
  1C   1py        0.081473  0.078997  0.193512 -0.512011 -0.067835 -0.193693
  1C   2pz        0.422284 -0.026816 -0.013834  0.178035 -0.003748 -0.002181
  1C   2px       -0.176648 -0.039737  0.026587 -0.074473 -0.005897  0.003525
  1C   2py        0.257270  0.016727  0.040983  0.108467  0.002102  0.006002
  1C   1dz2       0.178820  0.411429  0.212415 -0.013168  0.757649  0.441171
  1C   1dxz      -0.178231  0.252655 -0.286826  0.013123  0.505354 -0.518194
  1C   1dyz       0.259589 -0.003466 -0.288327 -0.019114  0.021133 -0.545556
  1C   1dx2y2    -0.041803 -0.056973  0.319709  0.003076 -0.138444  0.599115
  1C   1dxy      -0.108584  0.276473  0.008281  0.007998  0.522005  0.042321
  2H   1s         0.108423  0.000001 -0.000005  0.448777 -0.000009  0.000025
  2H   2s         0.563676 -0.000001  0.000004  0.294435 -0.000001  0.000003
  2H   1pz       -0.513293  0.328914  0.169802 -0.776139 -0.237555 -0.138357
  2H   1px        0.214710  0.487442 -0.326178  0.324665 -0.373834  0.223577
  2H   1py       -0.312725 -0.205196 -0.502656 -0.472859  0.133265  0.380544
  3H   1s         0.108423 -0.000001  0.000005 -0.448777 -0.000009  0.000025
  3H   2s         0.563676  0.000001 -0.000004 -0.294435 -0.000001  0.000003
  3H   1pz        0.513293  0.328914  0.169802 -0.776139  0.237555  0.138357
  3H   1px       -0.214710  0.487442 -0.326178  0.324665  0.373834 -0.223577
  3H   1py        0.312725 -0.205196 -0.502656 -0.472859 -0.133265 -0.380544
                     36        37   
                   3.05663   3.91484
                   0.00000   0.00000
                  --------  --------
  0C   1s         0.113163  0.273771
  0C   2s        -0.526179 -2.213271
  0C   3s        -0.486717  1.376430
  0C   1pz       -0.735319  0.578126
  0C   1px        0.307585 -0.241833
  0C   1py       -0.447993  0.352221
  0C   2pz       -0.176540 -1.063404
  0C   2px        0.073846  0.444829
  0C   2py       -0.107558 -0.647874
  0C   1dz2      -0.418192 -0.853065
  0C   1dxz       0.416831  0.850261
  0C   1dyz      -0.607054 -1.238362
  0C   1dx2y2     0.097734  0.199400
  0C   1dxy       0.253943  0.518014
  1C   1s         0.113163 -0.273771
  1C   2s        -0.526179  2.213271
  1C   3s        -0.486717 -1.376430
  1C   1pz        0.735319  0.578126
  1C   1px       -0.307585 -0.241833
  1C   1py        0.447993  0.352221
  1C   2pz        0.176540 -1.063404
  1C   2px       -0.073846  0.444829
  1C   2py        0.107558 -0.647874
  1C   1dz2      -0.418192  0.853065
  1C   1dxz       0.416831 -0.850261
  1C   1dyz      -0.607054  1.238362
  1C   1dx2y2     0.097734 -0.199400
  1C   1dxy       0.253943 -0.518014
  2H   1s         1.030018  1.354771
  2H   2s         0.307299  0.372197
  2H   1pz       -0.836268 -0.784090
  2H   1px        0.349808  0.327988
  2H   1py       -0.509501 -0.477705
  3H   1s         1.030018 -1.354771
  3H   2s         0.307299 -0.372197
  3H   1pz        0.836268 -0.784090
  3H   1px       -0.349808  0.327988
  3H   1py        0.509501 -0.477705


-------
DENSITY
-------
                  0          1          2          3          4          5    
      0       2.091661  -0.168939  -0.208427   0.006076  -0.002542   0.003702
      1      -0.168939   0.514999   0.347060   0.001084  -0.000449   0.000664
      2      -0.208427   0.347060   0.372384   0.095954  -0.040180   0.058418
      3       0.006076   0.001084   0.095954   0.404237  -0.013419   0.019546
      4      -0.002542  -0.000449  -0.040180  -0.013419   0.377770  -0.008176
      5       0.003702   0.000664   0.058418   0.019546  -0.008176   0.384066
      6       0.025810  -0.066429  -0.090762   0.060217   0.062710  -0.091302
      7      -0.010796   0.027788   0.037942   0.062697   0.183867   0.038193
      8       0.015725  -0.040471  -0.055321  -0.091314   0.038206   0.154474
      9       0.002748   0.007397   0.002314  -0.009170  -0.005105   0.007436
     10      -0.002739  -0.007372  -0.002305   0.000100  -0.010223  -0.003084
     11       0.003989   0.010738   0.003361  -0.000145  -0.003084  -0.007848
     12      -0.000642  -0.001729  -0.000542  -0.001187   0.005659   0.006795
     13      -0.001669  -0.004492  -0.001405  -0.003084  -0.006228   0.003282
     14       0.056613  -0.115268   0.069375   0.108442  -0.045361   0.066068
     15      -0.115268   0.167435  -0.129354  -0.188444   0.078824  -0.114812
     16       0.069375  -0.129354  -0.301228  -0.171213   0.071662  -0.104269
     17      -0.108442   0.188444   0.171213  -0.035332   0.170455  -0.248260
     18       0.045361  -0.078824  -0.071662   0.170455   0.300854   0.103849
     19      -0.066068   0.114812   0.104269  -0.248260   0.103849   0.220906
     20       0.016859  -0.062038  -0.087624   0.017332   0.080649  -0.117429
     21      -0.007053   0.025954   0.036630   0.080635   0.176363   0.049121
[...]
Number of atoms                                  ...    4
Basis set dimensions                             ...   38
Integral neglect threshold                       ... 2.5e-11
Integral primitive cutoff                        ... 2.5e-12

Setting up DFT Hessian calculations              ... 
Electron density on the grid                     ... found on disk
Electron density on the final grid               ... found on disk
Building xc-kernel on the grid                   ... done   (      0.0 sec)
Building xc-kernel on the final grid             ... done   (      0.0 sec)
                                                     done   (      0.2 sec)

Nuclear repulsion Hessian                        ... done   (      0.0 sec)

----------------------------------------------------------
Detailed info about batch handling over perturbations
----------------------------------------------------------

Number of atoms                                    4
Total number of perturbations                     12
Number of perturbations per process                3
Storage mode                                  InCore

Batching info for step 0
Memory available                   ...       1005.3 MB
Memory needed per perturbation     ...          0.0 MB
Number of perturbations per batch  ...            3
Number of batches                  ...            1

Batching info for step 1
Memory available                   ...       1005.2 MB
Memory needed per perturbation     ...          0.0 MB
Number of perturbations per batch  ...            3
Number of batches                  ...            1

Batching info for step 2
Memory available                   ...       1005.2 MB
Memory needed per perturbation     ...          0.0 MB
Number of perturbations per batch  ...            1
Number of batches                  ...            3

Batching info for step 3
Memory available                   ...       1005.3 MB
Memory needed per perturbation     ...          0.0 MB
Number of perturbations per batch  ...            3
Number of batches                  ...            1

Batching info for step 4
Memory available                   ...       1005.2 MB
Memory needed per perturbation     ...          0.0 MB
Number of perturbations per batch  ...            3
Number of batches                  ...            1

Batching info for step 5
Memory available                   ...       1005.2 MB
Memory needed per perturbation     ...          0.2 MB
Number of perturbations per batch  ...            3
Number of batches                  ...            1

Batching info for step 6
Memory available                   ...       1005.2 MB
Memory needed per perturbation     ...          0.1 MB
Number of perturbations per batch  ...            3
Number of batches                  ...            1


----------------------------------------------
Forming right-hand sides of CP-SCF equations     ...
----------------------------------------------

------------------------
Batching info for step 0
------------------------
Number of perturbation per batch  ...            3
Number of batches                 ...            1
Storage mode                      ...       InCore

One electron integral derivatives                ... done   (      0.1 sec)

------------------------
Batching info for step 1
------------------------
Number of perturbation per batch  ...            3
Number of batches                 ...            1
Storage mode                      ...       InCore

Transforming the overlap derivative matrices     ... done   (      0.0 sec)

------------------------
Batching info for step 1
------------------------
Number of perturbation per batch  ...            3
Number of batches                 ...            1
Storage mode                      ...       InCore

Making the Q(x) pseudodensities                  ... done   (      0.0 sec)
Adding the E*S(x)*S(y) terms to the Hessian      ... done   (      0.0 sec)
Calculating energy weighted overlap derivatives  ... done   (      0.0 sec)

------------------------
Batching info for step 3
------------------------
Number of perturbation per batch  ...            3
Number of batches                 ...            1
Storage mode                      ...       InCore

Two electron integral derivatives (RI)           ... done   (      0.2 sec)

------------------------
Batching info for step 4
------------------------
Number of perturbation per batch  ...            3
Number of batches                 ...            1
Storage mode                      ...       InCore

Exchange-correlation integral derivatives        ... done   (      0.7 sec)
tr(F(y)Q(x)) contribution to the Hessian         ... done   (      0.0 sec)

------------------------
Batching info for step 5
------------------------
Number of perturbation per batch  ...            3
Number of batches                 ...            1
Storage mode                      ...       InCore

Response fock operator R(S(x)) (RI)              ... (RIJ)done   (      0.2 sec)

------------------------
Batching info for step 6
------------------------
Number of perturbation per batch  ...            3
Number of batches                 ...            1
Storage mode                      ...       InCore

XC Response fock operator R(S(x))                ... done   (      0.2 sec)
tr(F(y)S(x)) contribution to the Hessian         ... done   (      0.0 sec)
Transforming and finalizing RHSs                 ... done   (      0.0 sec)

----------------------------------------------
Solving the CP-SCF equations (RI)                ...
----------------------------------------------
     CP-SCF ITERATION   0: 
     CP-SCF ITERATION   1:      0.010889798315
     CP-SCF ITERATION   2:      0.000212775794
     CP-SCF ITERATION   3:      0.000001333459
     CP-SCF ITERATION   4:      0.000000016668
     CP-SCF ITERATION   5:      0.000000008173

                                                 ... done   (      1.8 sec)
Forming perturbed density Hessian contributions  ... done   (      0.0 sec)
Making the perturbed densities                   ... done   (      0.0 sec)
2nd integral derivative contribs (RI)            ... done   (      0.3 sec)
Exchange-correlation Hessian                     ... done   (      0.9 sec)
Dispersion correction in the Hessian             ... 
The revPBE functional is recognized
Active option DFTDOPT                   ...         5   



------------------- 
Dispersion Gradient 
------------------- 
   1  :   -0.000069974    0.000102068    0.000167532
   2  :    0.000070107   -0.000102224   -0.000167788
   3  :   -0.000036804    0.000053778    0.000088269
   4  :    0.000036684   -0.000053636   -0.000088036

  |G| =    0.001036901


The revPBE functional is recognized
Active option DFTDOPT                   ...         5   



------------------- 
Dispersion Gradient 
------------------- 
   1  :   -0.000070379    0.000102350    0.000167994
   2  :    0.000070246   -0.000102194   -0.000167738
   3  :   -0.000036977    0.000053681    0.000088110
   4  :    0.000037098   -0.000053824   -0.000088344

  |G| =    0.001038935


The revPBE functional is recognized
Active option DFTDOPT                   ...         5   



------------------- 
Dispersion Gradient 
------------------- 
   1  :   -0.000070192    0.000102152    0.000167800
   2  :    0.000070036   -0.000101898   -0.000167427
   3  :   -0.000036796    0.000053451    0.000087965
   4  :    0.000036939   -0.000053680   -0.000088305

  |G| =    0.001036640


The revPBE functional is recognized
Active option DFTDOPT                   ...         5   



------------------- 
Dispersion Gradient 
------------------- 
   1  :   -0.000070161    0.000102267    0.000167727
   2  :    0.000070317   -0.000102520   -0.000168100
   3  :   -0.000036984    0.000054009    0.000088414
   4  :    0.000036842   -0.000053779   -0.000088074

  |G| =    0.001039194


The revPBE functional is recognized
Active option DFTDOPT                   ...         5   



------------------- 
Dispersion Gradient 
------------------- 
   1  :   -0.000070075    0.000102061    0.000167636
   2  :    0.000070331   -0.000102434   -0.000168275
   3  :   -0.000037088    0.000054017    0.000088712
   4  :    0.000036855   -0.000053677   -0.000088131

  |G| =    0.001039290


The revPBE functional is recognized
Active option DFTDOPT                   ...         5   



------------------- 
Dispersion Gradient 
------------------- 
   1  :   -0.000070278    0.000102357    0.000167889
   2  :    0.000070022   -0.000101984   -0.000167252
   3  :   -0.000036692    0.000053441    0.000087667
   4  :    0.000036926   -0.000053782   -0.000088248

  |G| =    0.001036538


Dispersion correction Hessian from Numerical Differentiation: 
                  0          1          2          3          4          5    
      0       0.000041   0.000000   0.000000   0.000000  -0.000003   0.000000
      1       0.000000   0.000000   0.000000   0.000000  -0.000011   0.000000
      2       0.000000   0.000000   0.000000   0.000000   0.000007   0.000000
      3       0.000000   0.000000   0.000000   0.000000  -0.000028   0.000000
      4      -0.000003  -0.000011   0.000007  -0.000028   0.000062   0.000000
      5       0.000000   0.000000   0.000000   0.000000   0.000000   0.000000
      6       0.000000   0.000000   0.000000   0.000000   0.000000   0.000000
      7       0.000000   0.000000   0.000000   0.000000   0.000000   0.000000
      8       0.000020  -0.000030  -0.000025   0.000031  -0.000045  -0.000102
      9       0.000000   0.000000   0.000000   0.000000   0.000000   0.000000
     10       0.000000   0.000000   0.000000   0.000000   0.000000   0.000000
     11       0.000000   0.000000   0.000000   0.000000   0.000000   0.000000
                  6          7          8          9         10         11    
      0       0.000000   0.000000   0.000020   0.000000   0.000000   0.000000
      1       0.000000   0.000000  -0.000030   0.000000   0.000000   0.000000
      2       0.000000   0.000000  -0.000025   0.000000   0.000000   0.000000
      3       0.000000   0.000000   0.000031   0.000000   0.000000   0.000000
      4       0.000000   0.000000  -0.000045   0.000000   0.000000   0.000000
      5       0.000000   0.000000  -0.000102   0.000000   0.000000   0.000000
      6       0.000000   0.000000  -0.000040   0.000000   0.000000   0.000000
      7       0.000000   0.000000   0.000058   0.000000   0.000000   0.000000
      8      -0.000040   0.000058   0.000104   0.000000   0.000000   0.000000
      9       0.000000   0.000000   0.000000   0.000000   0.000000   0.000000
     10       0.000000   0.000000   0.000000   0.000000   0.000000   0.000000
     11       0.000000   0.000000   0.000000   0.000000   0.000000   0.000000

done   (      0.3 sec)
gCP correction in the Hessian                    ...  
-----------------
gCP hessian 
from Numerical Differentiation: 
-----------------
                  0          1          2          3          4          5    
      0      -0.001225  -0.000707  -0.001160   0.000527   0.000316   0.000519
      1      -0.000707  -0.000681   0.001689   0.000316   0.000284  -0.000757
      2      -0.001160   0.001689   0.001062   0.000519  -0.000757  -0.000497
      3       0.000527   0.000316   0.000519  -0.001225  -0.000707  -0.001160
      4       0.000316   0.000284  -0.000757  -0.000707  -0.000681   0.001689
      5       0.000519  -0.000757  -0.000497  -0.001160   0.001689   0.001062
      6       0.000659   0.000330   0.000541   0.000039   0.000060   0.000099
      7       0.000330   0.000405  -0.000788   0.000060  -0.000007  -0.000144
      8       0.000541  -0.000788  -0.000409   0.000099  -0.000144  -0.000156
      9       0.000039   0.000060   0.000099   0.000659   0.000330   0.000541
     10       0.000060  -0.000007  -0.000144   0.000330   0.000405  -0.000788
     11       0.000099  -0.000144  -0.000156   0.000541  -0.000788  -0.000409
                  6          7          8          9         10         11    
      0       0.000659   0.000330   0.000541   0.000039   0.000060   0.000099
      1       0.000330   0.000405  -0.000788   0.000060  -0.000007  -0.000144
      2       0.000541  -0.000788  -0.000409   0.000099  -0.000144  -0.000156
      3       0.000039   0.000060   0.000099   0.000659   0.000330   0.000541
      4       0.000060  -0.000007  -0.000144   0.000330   0.000405  -0.000788
      5       0.000099  -0.000144  -0.000156   0.000541  -0.000788  -0.000409
      6      -0.000698  -0.000393  -0.000645   0.000000   0.000003   0.000005
      7      -0.000393  -0.000396   0.000939   0.000003  -0.000002  -0.000007
      8      -0.000645   0.000939   0.000574   0.000005  -0.000007  -0.000009
      9       0.000000   0.000003   0.000005  -0.000698  -0.000393  -0.000645
     10       0.000003  -0.000002  -0.000007  -0.000393  -0.000396   0.000939
     11       0.000005  -0.000007  -0.000009  -0.000645   0.000939   0.000574

done   (      0.0 sec)
Dipol derivatives                                ... done   (      0.1 sec)

-------
TIMINGS
-------

Total SCF Hessian time: 0 days 0 hours 0 min 5 sec 
                   F(y)            G[Q(x)]           CPSCF         Total
Table01         0.2  0.04         0.2  0.04         1.8  0.33         5.6 
Table01a        0.2  0.04,        0.2, 0.04,        1.8  0.33         5.6 
Table01b        0.2   4.4,        0.2,  3.9,        1.8  32.6         5.6 

Writing the Hessian file to the disk             ... done


Maximum memory used throughout the entire calculation: 131.6 MB
Warning: T+R between 5 and 0 = -2.874e-11

-----------------------
VIBRATIONAL FREQUENCIES
-----------------------

Scaling factor for frequencies =  1.000000000  (already applied!)

   0:         0.00 cm**-1
   1:         0.00 cm**-1
   2:         0.00 cm**-1
   3:         0.00 cm**-1
   4:         0.00 cm**-1
   5:         0.00 cm**-1
   6:       618.16 cm**-1
   7:       745.59 cm**-1
   8:       745.64 cm**-1
   9:      1997.80 cm**-1
  10:      3331.60 cm**-1
  11:      3426.64 cm**-1


------------
NORMAL MODES
------------

These modes are the Cartesian displacements weighted by the diagonal matrix
M(i,i)=1/sqrt(m[i]) where m[i] is the mass of the displaced atom
Thus, these vectors are normalized but *not* orthogonal

                  0          1          2          3          4          5    
      0       0.000000   0.000000   0.000000   0.000000   0.000000   0.000000
      1       0.000000   0.000000   0.000000   0.000000   0.000000   0.000000
      2       0.000000   0.000000   0.000000   0.000000   0.000000   0.000000
      3       0.000000   0.000000   0.000000   0.000000   0.000000   0.000000
      4       0.000000   0.000000   0.000000   0.000000   0.000000   0.000000
      5       0.000000   0.000000   0.000000   0.000000   0.000000   0.000000
      6       0.000000   0.000000   0.000000   0.000000   0.000000   0.000000
      7       0.000000   0.000000   0.000000   0.000000   0.000000   0.000000
      8       0.000000   0.000000   0.000000   0.000000   0.000000   0.000000
      9       0.000000   0.000000   0.000000   0.000000   0.000000   0.000000
     10       0.000000   0.000000   0.000000   0.000000   0.000000   0.000000
     11       0.000000   0.000000   0.000000   0.000000   0.000000   0.000000
                  6          7          8          9         10         11    
      0       0.003972  -0.020467   0.051779   0.121037  -0.019893  -0.033440
      1       0.137582  -0.050755  -0.008978  -0.176299   0.028974   0.048706
      2      -0.082177   0.022361   0.027129  -0.289344   0.047557   0.079941
      3      -0.003972  -0.020558   0.051766  -0.121037  -0.019893   0.033440
      4      -0.137582  -0.050769  -0.008980   0.176299   0.028974  -0.048706
      5       0.082177   0.022332   0.027125   0.289344   0.047557  -0.079941
      6      -0.017040   0.244226  -0.616933   0.204782   0.237044   0.235515
      7      -0.591110   0.604834   0.106986  -0.298205  -0.345245  -0.343024
      8       0.352989  -0.266332  -0.323249  -0.489578  -0.566674  -0.563016
      9       0.017040   0.244615  -0.616877  -0.204782   0.237044  -0.235515
     10       0.591110   0.604897   0.106995   0.298205  -0.345245   0.343024
     11      -0.352989  -0.266208  -0.323231   0.489578  -0.566674   0.563016


-----------
IR SPECTRUM
-----------

 Mode    freq (cm**-1)   T**2         TX         TY         TZ
-------------------------------------------------------------------
   6:       618.16    0.000000  (  0.000000   0.000001  -0.000001)
   7:       745.59   78.901203  (  3.080953   7.625271  -3.356213)
   8:       745.64   78.899420  ( -7.777187   1.349547  -4.073512)
   9:      1997.80    0.000000  ( -0.000000  -0.000000   0.000000)
  10:      3331.60   87.114203  (  3.139846  -4.573084  -7.506162)
  11:      3426.64    0.000000  (  0.000000  -0.000000  -0.000001)

The first frequency considered to be a vibration is 6
The total number of vibrations considered is 6


--------------------------
THERMOCHEMISTRY AT 298.15K
--------------------------

Temperature         ... 298.15 K
Pressure            ... 1.00 atm
Total Mass          ... 26.04 AMU
The molecule is recognized as being linear

Throughout the following assumptions are being made:
  (1) The electronic state is orbitally nondegenerate
  (2) There are no thermally accessible electronically excited states
  (3) Hindered rotations indicated by low frequency modes are not
      treated as such but are treated as vibrations and this may
      cause some error
  (4) All equations used are the standard statistical mechanics
      equations for an ideal gas
  (5) All vibrations are strictly harmonic

freq.     618.16  E(vib)   ...       0.09 
freq.     745.59  E(vib)   ...       0.06 
freq.     745.64  E(vib)   ...       0.06 
freq.    1997.80  E(vib)   ...       0.00 
freq.    3331.60  E(vib)   ...       0.00 
freq.    3426.64  E(vib)   ...       0.00 

------------
INNER ENERGY
------------

The inner energy is: U= E(el) + E(ZPE) + E(vib) + E(rot) + E(trans)
    E(el)   - is the total energy from the electronic structure calculation
              = E(kin-el) + E(nuc-el) + E(el-el) + E(nuc-nuc)
    E(ZPE)  - the the zero temperature vibrational energy from the frequency calculation
    E(vib)  - the the finite temperature correction to E(ZPE) due to population
              of excited vibrational states
    E(rot)  - is the rotational thermal energy
    E(trans)- is the translational thermal energy

Summary of contributions to the inner energy U:
Electronic energy                ...    -77.24754084 Eh
Zero point energy                ...      0.02475329 Eh      15.53 kcal/mol
Thermal vibrational correction   ...      0.00034210 Eh       0.21 kcal/mol
Thermal rotational correction    ...      0.00094418 Eh       0.59 kcal/mol
Thermal translational correction ...      0.00141627 Eh       0.89 kcal/mol
-----------------------------------------------------------------------
Total thermal energy                    -77.22008500 Eh


Summary of corrections to the electronic energy:
(perhaps to be used in another calculation)
Total thermal correction                  0.00270255 Eh       1.70 kcal/mol
Non-thermal (ZPE) correction              0.02475329 Eh      15.53 kcal/mol
-----------------------------------------------------------------------
Total correction                          0.02745584 Eh      17.23 kcal/mol


--------
ENTHALPY
--------

The enthalpy is H = U + kB*T
                kB is Boltzmann's constant
Total free energy                 ...    -77.22008500 Eh 
Thermal Enthalpy correction       ...      0.00094421 Eh       0.59 kcal/mol
-----------------------------------------------------------------------
Total Enthalpy                    ...    -77.21914079 Eh

[file orca_tools/Tool-Symmetry/symmain.cpp, line 3070]: Error (ORCA_SYM): TMoleculeSymmetry::CleanUp molecule is linear but not aligned to z axis!

