
                                 *****************
                                 * O   R   C   A *
                                 *****************

           --- An Ab Initio, DFT and Semiempirical electronic structure package ---

                  #######################################################
                  #                        -***-                        #
                  #          Department of theory and spectroscopy      #
                  #               Directorship: Frank Neese             #
                  #        Max Planck Institute fuer Kohlenforschung    #
                  #                Kaiser Wilhelm Platz 1               #
                  #                 D-45470 Muelheim/Ruhr               #
                  #                      Germany                        #
                  #                                                     #
                  #                  All rights reserved                #
                  #                        -***-                        #
                  #######################################################


                         Program Version 4.2.1 -  RELEASE  -


 With contributions from (in alphabetic order):
   Daniel Aravena         : Magnetic Suceptibility
   Michael Atanasov       : Ab Initio Ligand Field Theory (pilot matlab implementation)
   Alexander A. Auer      : GIAO ZORA, VPT2
   Ute Becker             : Parallelization
   Giovanni Bistoni       : ED, misc. LED, open-shell LED, HFLD
   Martin Brehm           : Molecular dynamics
   Dmytro Bykov           : SCF Hessian
   Vijay G. Chilkuri      : MRCI spin determinant printing, contributions to CSF-ICE
   Dipayan Datta          : RHF DLPNO-CCSD density
   Achintya Kumar Dutta   : EOM-CC, STEOM-CC
   Dmitry Ganyushin       : Spin-Orbit,Spin-Spin,Magnetic field MRCI
   Miquel Garcia          : C-PCM Hessian, Gaussian charge scheme
   Yang Guo               : DLPNO-NEVPT2, CIM, IAO-localization
   Andreas Hansen         : Spin unrestricted coupled pair/coupled cluster methods
   Benjamin Helmich-Paris : CASSCF linear response (MC-RPA)
   Lee Huntington         : MR-EOM, pCC
   Robert Izsak           : Overlap fitted RIJCOSX, COSX-SCS-MP3, EOM
   Christian Kollmar      : KDIIS, OOCD, Brueckner-CCSD(T), CCSD density
   Simone Kossmann        : Meta GGA functionals, TD-DFT gradient, OOMP2, MP2 Hessian
   Martin Krupicka        : AUTO-CI
   Lucas Lang             : DCDCAS
   Dagmar Lenk            : GEPOL surface, SMD
   Dimitrios Liakos       : Extrapolation schemes; Compound Job, initial MDCI parallelization
   Dimitrios Manganas     : Further ROCIS development; embedding schemes
   Dimitrios Pantazis     : SARC Basis sets
   Taras Petrenko         : DFT Hessian,TD-DFT gradient, ASA, ECA, R-Raman, ABS, FL, XAS/XES, NRVS
   Peter Pinski           : DLPNO-MP2, DLPNO-MP2 Gradient
   Christoph Reimann      : Effective Core Potentials
   Marius Retegan         : Local ZFS, SOC
   Christoph Riplinger    : Optimizer, TS searches, QM/MM, DLPNO-CCSD(T), (RO)-DLPNO pert. Triples
   Tobias Risthaus        : Range-separated hybrids, TD-DFT gradient, RPA, STAB
   Michael Roemelt        : Original ROCIS implementation
   Masaaki Saitow         : Open-shell DLPNO-CCSD energy and density
   Barbara Sandhoefer     : DKH picture change effects
   Avijit Sen             : IP-ROCIS
   Kantharuban Sivalingam : CASSCF convergence, NEVPT2, FIC-MRCI
   Bernardo de Souza      : ESD, SOC TD-DFT
   Georgi Stoychev        : AutoAux, RI-MP2 NMR
   Willem Van den Heuvel  : Paramagnetic NMR
   Boris Wezisla          : Elementary symmetry handling
   Frank Wennmohs         : Technical directorship


 We gratefully acknowledge several colleagues who have allowed us to
 interface, adapt or use parts of their codes:
   Stefan Grimme, W. Hujo, H. Kruse,             : VdW corrections, initial TS optimization,
                  C. Bannwarth                     DFT functionals, gCP, sTDA/sTD-DF
   Ed Valeev, F. Pavosevic, A. Kumar             : LibInt (2-el integral package), F12 methods
   Garnet Chan, S. Sharma, J. Yang, R. Olivares  : DMRG
   Ulf Ekstrom                                   : XCFun DFT Library
   Mihaly Kallay                                 : mrcc  (arbitrary order and MRCC methods)
   Andreas Klamt, Michael Diedenhofen            : otool_cosmo (COSMO solvation model)
   Jiri Pittner, Ondrej Demel                    : Mk-CCSD
   Frank Weinhold                                : gennbo (NPA and NBO analysis)
   Christopher J. Cramer and Donald G. Truhlar   : smd solvation model
   Lars Goerigk                                  : TD-DFT with DH, B97 family of functionals
   V. Asgeirsson, H. Jonsson                     : NEB implementation
   FAccTs GmbH                                   : IRC, NEB, NEB-TS, Multilevel, MM, QM/MM, CI optimization
   S Lehtola, MJT Oliveira, MAL Marques          : LibXC Library


 Your calculation uses the libint2 library for the computation of 2-el integrals
 For citations please refer to: http://libint.valeyev.net

 Your ORCA version has been built with support for libXC version: 4.2.3
 For citations please refer to: https://tddft.org/programs/libxc/

 This ORCA versions uses:
   CBLAS   interface :  Fast vector & matrix operations
   LAPACKE interface :  Fast linear algebra routines
   SCALAPACK package :  Parallel linear algebra routines


Your calculation utilizes the geometrical counterpoise correction gCP
Please cite in your paper:
H.Kruse, S. Grimme J.Chem.Phys., 136, (2012), 154101 
   

Your calculation utilizes the atom-pairwise dispersion correction
based on tight binding partial charges (D4)
Cite in your paper:
E.Caldeweyher, C.Bannwarth, S.Grimme, J.Chem.Phys., (2017), 147, 034112.
E.Caldeweyher, S.Ehlert, A.Hansen, H.Neugebauer, S.Grimme, J.Chem.Phys., (2018), in progress.
   

----- Orbital basis set information -----
Your calculation utilizes the basis: def2-SVP
   F. Weigend and R. Ahlrichs, Phys. Chem. Chem. Phys. 7, 3297 (2005).

----- AuxJ basis set information -----
Your calculation utilizes the auxiliary basis: def2/J
   F. Weigend, Phys. Chem. Chem. Phys. 8, 1057 (2006).

================================================================================
                                        WARNINGS
                       Please study these warnings very carefully!
================================================================================


WARNING: Geometry Optimization
  ===> : Switching off AutoStart
         For restart on a previous wavefunction, please use MOREAD

INFO   : the flag for use of LIBINT has been found!

================================================================================
                                       INPUT FILE
================================================================================
NAME = H2O2.inp
|  1> ! revPBE D4 gCP(DFT/SVP) def2-SVP Opt Freq TightOpt TightSCF Grid4 FinalGrid5 LargePrint
|  2> 
|  3> %pal
|  4>  nprocs 4
|  5> end
|  6> 
|  7> *xyz 0 1
|  8> O       -1.1605931217      2.9577253471      0.0447499041                 
|  9> O        0.1384095003      2.7439938009      0.0085983285                 
| 10> H       -1.5133140356      2.5127894696     -0.7679511515                 
| 11> H        0.5251566000      3.5908396288     -0.3321975176                 
| 12> *
| 13> 
| 14>                          ****END OF INPUT****
================================================================================

                       *****************************
                       * Geometry Optimization Run *
                       *****************************

Geometry optimization settings:
Update method            Update   .... BFGS
Choice of coordinates    CoordSys .... Z-matrix Internals
Initial Hessian          InHess   .... Almoef's Model

Convergence Tolerances:
Energy Change            TolE     ....  1.0000e-06 Eh
Max. Gradient            TolMAXG  ....  1.0000e-04 Eh/bohr
RMS Gradient             TolRMSG  ....  3.0000e-05 Eh/bohr
Max. Displacement        TolMAXD  ....  1.0000e-03 bohr
RMS Displacement         TolRMSD  ....  6.0000e-04 bohr
Strict Convergence                ....  False
------------------------------------------------------------------------------
                        ORCA OPTIMIZATION COORDINATE SETUP
------------------------------------------------------------------------------

The optimization will be done in new redundant internal coordinates
Making redundant internal coordinates   ...  (new redundants) done
Evaluating the initial hessian          ...  (Almloef) done
Evaluating the coordinates              ...  done
Calculating the B-matrix                .... done
Calculating the G-matrix                .... done
Diagonalizing the G-matrix              .... done
The first mode is                       ....    0
The number of degrees of freedom        ....    6

    -----------------------------------------------------------------
                    Redundant Internal Coordinates


    -----------------------------------------------------------------
         Definition                    Initial Value    Approx d2E/dq
    -----------------------------------------------------------------
      1. B(O   1,O   0)                  1.3170         0.655444   
      2. B(H   2,O   0)                  0.9914         0.463318   
      3. B(H   3,O   1)                  0.9914         0.463318   
      4. A(O   1,O   0,H   2)          104.8086         0.364013   
      5. A(O   0,O   1,H   3)          104.8086         0.364013   
      6. D(H   3,O   1,O   0,H   2)    100.7933         0.033130   
    -----------------------------------------------------------------

Number of atoms                         .... 4
Number of degrees of freedom            .... 6

         *************************************************************
         *                GEOMETRY OPTIMIZATION CYCLE   1            *
         *************************************************************
---------------------------------
CARTESIAN COORDINATES (ANGSTROEM)
---------------------------------
  O     -1.160593    2.957725    0.044750
  O      0.138410    2.743994    0.008598
  H     -1.513314    2.512789   -0.767951
  H      0.525157    3.590840   -0.332198

----------------------------
CARTESIAN COORDINATES (A.U.)
----------------------------
  NO LB      ZA    FRAG     MASS         X           Y           Z
   0 O     8.0000    0    15.999   -2.193203    5.589291    0.084565
   1 O     8.0000    0    15.999    0.261556    5.185397    0.016248
   2 H     1.0000    0     1.008   -2.859749    4.748484   -1.451217
   3 H     1.0000    0     1.008    0.992402    6.785703   -0.627762

--------------------------------
INTERNAL COORDINATES (ANGSTROEM)
--------------------------------
 O      0   0   0     0.000000000000     0.00000000     0.00000000
 O      1   0   0     1.316964662480     0.00000000     0.00000000
 H      1   2   0     0.991394464359   104.80862931     0.00000000
 H      2   1   3     0.991394464417   104.80862930   100.79329613

---------------------------
INTERNAL COORDINATES (A.U.)
---------------------------
 O      0   0   0     0.000000000000     0.00000000     0.00000000
 O      1   0   0     2.488702540140     0.00000000     0.00000000
 H      1   2   0     1.873464028325   104.80862931     0.00000000
 H      2   1   3     1.873464028434   104.80862930   100.79329613

---------------------
BASIS SET INFORMATION
---------------------
There are 2 groups of distinct atoms

 Group   1 Type O   : 7s4p1d contracted to 3s2p1d pattern {511/31/1}
 Group   2 Type H   : 4s1p contracted to 2s1p pattern {31/1}

Atom   0O    basis set group =>   1
Atom   1O    basis set group =>   1
Atom   2H    basis set group =>   2
Atom   3H    basis set group =>   2

-------------------------
BASIS SET IN INPUT FORMAT
-------------------------

 # Basis set for element : H 
 NewGTO H 
 S 3 
   1      13.0107010000      0.0334854848
   2       1.9622572000      0.2347218709
   3       0.4445379600      0.8137702853
 S 1 
   1       0.1219496200      1.0000000000
 P 1 
   1       0.8000000000      1.0000000000
  end;

 # Basis set for element : O 
 NewGTO O 
 S 5 
   1    2266.1767785000     -0.0053893504
   2     340.8701019100     -0.0402347214
   3      77.3631351670     -0.1800818421
   4      21.4796449400     -0.4682885766
   5       6.6589433124     -0.4469261716
 S 1 
   1       0.8097597567      1.0000000000
 S 1 
   1       0.2553077223      1.0000000000
 P 3 
   1      17.7215043170      0.0626302488
   2       3.8635505440      0.3333113849
   3       1.0480920883      0.7414863830
 P 1 
   1       0.2764154441      1.0000000000
 D 1 
   1       1.2000000000      1.0000000000
  end;

---------------------------------
AUXILIARY/J BASIS SET INFORMATION
---------------------------------
There are 2 groups of distinct atoms

 Group   1 Type O   : 12s5p4d2f1g contracted to 6s4p3d1f1g pattern {711111/2111/211/2/1}
 Group   2 Type H   : 5s2p1d contracted to 3s1p1d pattern {311/2/1}

Atom   0O    basis set group =>   1
Atom   1O    basis set group =>   1
Atom   2H    basis set group =>   2
Atom   3H    basis set group =>   2

-------------------------------------
AUXILIARY/J BASIS SET IN INPUT FORMAT
-------------------------------------

 # Auxiliary/J basis set for element : H 
 NewAuxJGTO H 
 S 3 
   1      15.6752927000      0.1007184237
   2       3.6063578000      0.3404257499
   3       1.2080016000      0.6491996172
 S 1 
   1       0.4726794000      1.0000000000
 S 1 
   1       0.2018100000      1.0000000000
 P 2 
   1       2.0281365000      0.5596620919
   2       0.5358730000      0.5596620919
 D 1 
   1       2.2165124000      1.0000000000
  end;

 # Auxiliary/J basis set for element : O 
 NewAuxJGTO O 
 S 7 
   1    2876.8216605000      0.0168151159
   2    1004.7443032000      0.0340137548
   3     369.7579954000      0.1194951309
   4     142.9442404000      0.2664627624
   5      57.8366425000      0.4202764046
   6      24.3864983000      0.2765077335
   7      10.6622662000      0.0057008815
 S 1 
   1       4.8070437000     -1.0000000000
 S 1 
   1       2.2210770000      1.0000000000
 S 1 
   1       1.0447795000      1.0000000000
 S 1 
   1       0.4968425000      1.0000000000
 S 1 
   1       0.2371384000      1.0000000000
 P 2 
   1      64.2613382000     -0.2731534179
   2      16.3006076000     -0.8168011598
 P 1 
   1       4.3550542000      1.0000000000
 P 1 
   1       1.2019554000      1.0000000000
 P 1 
   1       0.3354196000      1.0000000000
 D 2 
   1       9.2146611000     -0.4661230638
   2       2.8435251000     -0.6600908911
 D 1 
   1       0.9955759000     -1.0000000000
 D 1 
   1       0.3649441000     -1.0000000000
 F 2 
   1       2.6420115000      0.5931563945
   2       0.7345613000      0.5931563945
 G 1 
   1       1.3931000000     -1.0000000000
  end;



           ************************************************************
           *        Program running with 4 parallel MPI-processes     *
           *              working on a common directory               *
           ************************************************************
------------------------------------------------------------------------------
                           ORCA GTO INTEGRAL CALCULATION
                           -- RI-GTO INTEGRALS CHOSEN --
------------------------------------------------------------------------------

                         BASIS SET STATISTICS AND STARTUP INFO

Gaussian basis set:
 # of primitive gaussian shells          ...   34
 # of primitive gaussian functions       ...   62
 # of contracted shells                  ...   18
 # of contracted basis functions         ...   38
 Highest angular momentum                ...    2
 Maximum contraction depth               ...    5
Auxiliary gaussian basis set:
 # of primitive gaussian shells          ...   64
 # of primitive gaussian functions       ...  172
 # of contracted shells                  ...   40
 # of contracted aux-basis functions     ...  120
 Highest angular momentum                ...    4
 Maximum contraction depth               ...    7
Ratio of auxiliary to basis functions    ...  3.16
Integral package used                  ... LIBINT
 One Electron integrals                  ... done
 Ordering auxiliary basis shells         ... done
 Integral threshhold             Thresh  ...  2.500e-11
 Primitive cut-off               TCut    ...  2.500e-12
 Pre-screening matrix                    ... done
 Shell pair data                         ... 
 Ordering of the shell pairs             ... done (   0.000 sec) 171 of 171 pairs
 Determination of significant pairs      ... done (   0.000 sec)
 Creation of shell pair data             ... done (   0.000 sec)
 Storage of shell pair data              ... done (   0.120 sec)
 Shell pair data done in (   0.121 sec)
 Computing two index integrals           ... done
 Cholesky decomposition of the V-matrix  ... done


Timings:
 Total evaluation time                   ...   0.370 sec (  0.006 min)
 One electron matrix time                ...   0.030 sec (  0.000 min) =  8.0%
 Schwartz matrix evaluation time         ...   0.197 sec (  0.003 min) = 53.2%
 Two index repulsion integral time       ...   0.001 sec (  0.000 min) =  0.3%
 Cholesky decomposition of V             ...   0.001 sec (  0.000 min) =  0.2%
 Three index repulsion integral time     ...   0.000 sec (  0.000 min) =  0.0%



           ************************************************************
           *        Program running with 4 parallel MPI-processes     *
           *              working on a common directory               *
           ************************************************************
-------------------------------------------------------------------------------
                                 ORCA SCF
-------------------------------------------------------------------------------

------------
SCF SETTINGS
------------
Hamiltonian:
 Density Functional     Method          .... DFT(GTOs)
 Exchange Functional    Exchange        .... PBE
   PBE kappa parameter   XKappa         ....  1.245000
   PBE mue parameter    XMuePBE         ....  0.219520
 Correlation Functional Correlation     .... PBE
   PBE beta parameter  CBetaPBE         ....  0.066725
 LDA part of GGA corr.  LDAOpt          .... PW91-LDA
 Gradients option       PostSCFGGA      .... off
   Density functional embedding theory  .... OFF
   NL short-range parameter             ....  3.700000
 RI-approximation to the Coulomb term is turned on
   Number of auxiliary basis functions  .... 120


General Settings:
 Integral files         IntName         .... H2O2
 Hartree-Fock type      HFTyp           .... RHF
 Total Charge           Charge          ....    0
 Multiplicity           Mult            ....    1
 Number of Electrons    NEL             ....   18
 Basis Dimension        Dim             ....   38
 Nuclear Repulsion      ENuc            ....     39.0841996871 Eh

Convergence Acceleration:
 DIIS                   CNVDIIS         .... on
   Start iteration      DIISMaxIt       ....    12
   Startup error        DIISStart       ....  0.200000
   # of expansion vecs  DIISMaxEq       ....     5
   Bias factor          DIISBfac        ....   1.050
   Max. coefficient     DIISMaxC        ....  10.000
 Newton-Raphson         CNVNR           .... off
 SOSCF                  CNVSOSCF        .... on
   Start iteration      SOSCFMaxIt      ....   150
   Startup grad/error   SOSCFStart      ....  0.003300
 Level Shifting         CNVShift        .... on
   Level shift para.    LevelShift      ....    0.2500
   Turn off err/grad.   ShiftErr        ....    0.0010
 Zerner damping         CNVZerner       .... off
 Static damping         CNVDamp         .... on
   Fraction old density DampFac         ....    0.7000
   Max. Damping (<1)    DampMax         ....    0.9800
   Min. Damping (>=0)   DampMin         ....    0.0000
   Turn off err/grad.   DampErr         ....    0.1000
 Fernandez-Rico         CNVRico         .... off

SCF Procedure:
 Maximum # iterations   MaxIter         ....   125
 SCF integral mode      SCFMode         .... Direct
   Integral package                     .... LIBINT
 Reset frequency        DirectResetFreq ....    20
 Integral Threshold     Thresh          ....  2.500e-11 Eh
 Primitive CutOff       TCut            ....  2.500e-12 Eh

Convergence Tolerance:
 Convergence Check Mode ConvCheckMode   .... Total+1el-Energy
 Convergence forced     ConvForced      .... 0
 Energy Change          TolE            ....  1.000e-08 Eh
 1-El. energy change                    ....  1.000e-05 Eh
 Orbital Gradient       TolG            ....  1.000e-05
 Orbital Rotation angle TolX            ....  1.000e-05
 DIIS Error             TolErr          ....  5.000e-07


Diagonalization of the overlap matrix:
Smallest eigenvalue                        ... 1.602e-02
Time for diagonalization                   ...    0.002 sec
Threshold for overlap eigenvalues          ... 1.000e-08
Number of eigenvalues below threshold      ... 0
Time for construction of square roots      ...    0.006 sec
Total time needed                          ...    0.009 sec

-------------------
DFT GRID GENERATION
-------------------

General Integration Accuracy     IntAcc      ...  4.670
Radial Grid Type                 RadialGrid  ... Gauss-Chebyshev
Angular Grid (max. acc.)         AngularGrid ... Lebedev-302
Angular grid pruning method      GridPruning ... 3 (G Style)
Weight generation scheme         WeightScheme... Becke
Basis function cutoff            BFCut       ...    1.0000e-11
Integration weight cutoff        WCut        ...    1.0000e-14
Grids for H and He will be reduced by one unit

# of grid points (after initial pruning)     ...  19212 (   0.0 sec)
# of grid points (after weights+screening)   ...  18924 (   0.0 sec)
nearest neighbour list constructed           ...    0.0 sec
Grid point re-assignment to atoms done       ...    0.0 sec
Grid point division into batches done        ...    0.2 sec
Reduced shell lists constructed in    0.2 sec

Total number of grid points                  ...    18924
Total number of batches                      ...      298
Average number of points per batch           ...       63
Average number of grid points per atom       ...     4731
Average number of shells per batch           ...    15.20 (84.43%)
Average number of basis functions per batch  ...    32.36 (85.15%)
Average number of large shells per batch     ...    14.38 (94.63%)
Average number of large basis fcns per batch ...    30.88 (95.45%)
Maximum spatial batch extension              ...  17.32, 16.88, 13.42 au
Average spatial batch extension              ...   0.59,  0.68,  0.65 au

Time for grid setup =    0.261 sec

------------------------------
INITIAL GUESS: MODEL POTENTIAL
------------------------------
Loading Hartree-Fock densities                     ... done
Calculating cut-offs                               ... done
Setting up the integral package                    ... done
Initializing the effective Hamiltonian             ... done
Starting the Coulomb interaction                   ... done (   0.0 sec)
Reading the grid                                   ... done
Mapping shells                                     ... done
Starting the XC term evaluation                    ... done (   0.0 sec)
  promolecular density results
     # of electrons  =     17.999039969
     EX              =    -16.980660951
     EC              =     -0.598615333
     EX+EC           =    -17.579276285
Transforming the Hamiltonian                       ... done (   0.0 sec)
Diagonalizing the Hamiltonian                      ... done (   0.0 sec)
Back transforming the eigenvectors                 ... done (   0.0 sec)
Now organizing SCF variables                       ... done
                      ------------------
                      INITIAL GUESS DONE (   0.4 sec)
                      ------------------
----------------------
INITIAL GUESS ORBITALS
----------------------
                      0         1         2         3         4         5   
                 -18.94530 -18.94504  -1.14454  -0.87107  -0.59520  -0.52871
                   2.00000   2.00000   2.00000   2.00000   2.00000   2.00000
                  --------  --------  --------  --------  --------  --------
  0O   1s         0.699187  0.699298  0.204586  0.203698  0.013102  0.073020
  0O   2s        -0.028465 -0.027567  0.418037  0.433585  0.025879  0.154481
  0O   3s         0.017460  0.010748  0.191264  0.231303  0.012380  0.187681
  0O   1pz        0.001050  0.001075 -0.039671 -0.077599 -0.240202  0.211195
  0O   1px       -0.000568  0.000041  0.115599 -0.119358 -0.365435  0.013653
  0O   1py        0.000739  0.000538 -0.036257 -0.045589  0.016510  0.350123
  0O   2pz       -0.000480 -0.000730 -0.003830 -0.005226 -0.096867  0.093320
  0O   2px        0.004625  0.000582  0.038752 -0.051842 -0.155636  0.004994
  0O   2py       -0.000970 -0.000299 -0.002359 -0.006950  0.026864  0.192467
  0O   1dz2       0.000051 -0.000698 -0.005801  0.005016  0.011162 -0.001871
  0O   1dxz      -0.000313 -0.000411 -0.001511  0.003647 -0.000606  0.002255
  0O   1dyz      -0.000373 -0.000332  0.002453  0.003063  0.003034 -0.007541
  0O   1dx2y2    -0.000514  0.000677  0.012215 -0.005623 -0.009605  0.006482
  0O   1dxy       0.000051 -0.000505 -0.002984  0.000174  0.011744  0.014124
  1O   1s        -0.699043  0.699442  0.204586 -0.203698  0.013102 -0.073019
  1O   2s         0.028459 -0.027573  0.418037 -0.433586  0.025877 -0.154478
  1O   3s        -0.017458  0.010751  0.191264 -0.231302  0.012381 -0.187685
  1O   1pz       -0.000392  0.000505 -0.014590  0.026108 -0.178903  0.052946
  1O   1px       -0.000525 -0.000087 -0.113998 -0.122418  0.377799  0.018314
  1O   1py        0.001241 -0.001089  0.055164 -0.081723  0.129522  0.405261
  1O   2pz        0.000016 -0.000416 -0.003568 -0.002954 -0.084257  0.046788
  1O   2px        0.004611 -0.000549 -0.038535 -0.051909  0.160979  0.006366
  1O   2py       -0.001143  0.000698  0.004935 -0.007742  0.036249  0.208681
  1O   1dz2      -0.000531 -0.000236 -0.008596 -0.001132  0.005999 -0.004051
  1O   1dxz      -0.000221  0.000084  0.000637  0.003302  0.006475 -0.007182
  1O   1dyz      -0.000280  0.000298 -0.001794  0.001998 -0.005074 -0.000654
  1O   1dx2y2     0.000270  0.000914  0.010478  0.007451 -0.012998 -0.009604
  1O   1dxy       0.000160 -0.000702 -0.003574 -0.002790  0.009577 -0.012097
  2H   1s         0.000553  0.001049  0.089417  0.176266  0.220514 -0.168612
  2H   2s        -0.001259 -0.002880 -0.004966  0.000304  0.037903 -0.032575
  2H   1pz        0.001701  0.001532  0.013706  0.022972  0.021475 -0.014657
  2H   1px        0.000625  0.000072  0.007744  0.008440  0.004019 -0.013734
  2H   1py        0.000936  0.000901  0.006986  0.012789  0.015618 -0.000544
  3H   1s        -0.000553  0.001049  0.089418 -0.176266  0.220515  0.168610
  3H   2s         0.001258 -0.002881 -0.004965 -0.000304  0.037902  0.032576
  3H   1pz       -0.000717  0.000635  0.005975 -0.009581  0.006886  0.010403
  3H   1px        0.000697 -0.000136 -0.008325  0.009400 -0.004855 -0.014474
  3H   1py        0.001778 -0.001656 -0.013843  0.024132 -0.025499 -0.009276
                      6         7         8         9        10        11   
                  -0.48728  -0.33688  -0.32009  -0.00576  -0.00326   0.05043
                   2.00000   2.00000   2.00000   0.00000   0.00000   0.00000
                  --------  --------  --------  --------  --------  --------
  0O   1s         0.055601 -0.034683 -0.031720 -0.115813  0.070378 -0.030879
  0O   2s         0.116776 -0.071404 -0.066815 -0.260152  0.155934 -0.084641
  0O   3s         0.147855 -0.126800 -0.112347 -0.698193  0.497408 -0.086297
  0O   1pz        0.348692 -0.006919 -0.400220  0.134063 -0.173861 -0.160623
  0O   1px       -0.286698  0.028920  0.058359 -0.352636 -0.101731 -0.430045
  0O   1py       -0.033764 -0.487374  0.285749  0.124551 -0.096431 -0.034369
  0O   2pz        0.204991  0.017442 -0.252562  0.168161 -0.216845 -0.193844
  0O   2px       -0.154891  0.020444  0.044449 -0.411861 -0.121124 -0.569912
  0O   2py       -0.031446 -0.314538  0.208710  0.165082 -0.119660 -0.023642
  0O   1dz2      -0.001985 -0.002711  0.007434 -0.010743 -0.002538 -0.013565
  0O   1dxz       0.015692  0.009219  0.011734  0.004880 -0.004701 -0.000141
  0O   1dyz      -0.003849  0.005879 -0.001156 -0.000453  0.000670 -0.006160
  0O   1dx2y2    -0.008173  0.000211  0.003340  0.021160  0.006829  0.013047
  0O   1dxy      -0.000975  0.007036  0.001450  0.001064  0.000796 -0.009567
  1O   1s         0.055601 -0.034685  0.031718  0.115792  0.070413  0.030877
  1O   2s         0.116777 -0.071410  0.066814  0.260108  0.156012  0.084636
  1O   3s         0.147848 -0.126796  0.112333  0.698040  0.497629  0.086293
  1O   1pz        0.308748  0.295673  0.493525 -0.046027 -0.070757  0.081675
  1O   1px        0.267304 -0.037441  0.031992 -0.347353  0.108837 -0.437195
  1O   1py       -0.195306  0.386756 -0.025635  0.187253  0.181715 -0.118797
  1O   2pz        0.187993  0.207857  0.329470 -0.050640 -0.088946  0.106968
  1O   2px        0.143301 -0.027095  0.027280 -0.405447  0.130010 -0.578786
  1O   2py       -0.105481  0.236034  0.005924  0.241259  0.226275 -0.128455
  1O   1dz2       0.003946 -0.006405 -0.002215  0.011407 -0.003503  0.005338
  1O   1dxz      -0.013374 -0.002336  0.008604  0.001042  0.004800  0.004303
  1O   1dyz       0.007238  0.001484  0.007024  0.000917 -0.001544 -0.006158
  1O   1dx2y2    -0.003040 -0.001237 -0.001532 -0.021129  0.005703 -0.018034
  1O   1dxy       0.008755  0.011235 -0.008771 -0.003148 -0.002438  0.008579
  2H   1s        -0.061437  0.159318  0.140957  0.133856 -0.187641 -0.204116
  2H   2s         0.000005  0.028450  0.037530  0.614335 -0.824365 -0.719491
  2H   1pz        0.003424  0.017514 -0.000606  0.001181  0.011731  0.012491
  2H   1px       -0.013517  0.002460  0.004515 -0.021884  0.000731 -0.008797
  2H   1py       -0.005124 -0.008677  0.020375  0.001334  0.004782  0.010447
  3H   1s        -0.061436  0.159321 -0.140951 -0.133801 -0.187686  0.204122
  3H   2s         0.000007  0.028452 -0.037519 -0.614087 -0.824536  0.719500
  3H   1pz        0.006570  0.018956  0.013364 -0.001247  0.006166 -0.003745
  3H   1px        0.013222 -0.003535  0.004102 -0.021812 -0.001265 -0.008319
  3H   1py        0.001641 -0.004031  0.015507  0.002183 -0.011016  0.016105
                     12        13        14        15        16        17   
                   0.48130   0.49790   0.73098   0.73786   0.78692   0.83391
                   0.00000   0.00000   0.00000   0.00000   0.00000   0.00000
                  --------  --------  --------  --------  --------  --------
  0O   1s        -0.025084  0.062865  0.086349 -0.108620  0.080748 -0.067883
  0O   2s        -0.108066  0.248687  0.387813 -0.551021  0.455830 -0.301744
  0O   3s         0.215291 -0.357027  0.116209  0.490161 -0.185665 -0.102855
  0O   1pz        0.248844 -0.261324  0.096830 -0.514387  0.019770 -0.321317
  0O   1px        0.041322  0.076074 -0.326795  0.131854  0.419558  0.320554
  0O   1py        0.233436 -0.046622  0.506119  0.232029  0.255757  0.389207
  0O   2pz       -0.021646 -0.009316 -0.132561  0.538316 -0.252781  0.585991
  0O   2px        0.082628 -0.139491  0.688081 -0.103854 -0.553402 -0.806763
  0O   2py       -0.022067  0.008671 -0.547444 -0.153951 -0.550592 -0.383426
  0O   1dz2       0.036520 -0.029349 -0.012431  0.011661 -0.047874  0.013844
  0O   1dxz       0.045077 -0.031350 -0.002220 -0.001647  0.012026 -0.010585
  0O   1dyz       0.045453 -0.051007 -0.002541  0.006244 -0.004366  0.018440
  0O   1dx2y2    -0.011166 -0.018242  0.016957 -0.017159  0.083400 -0.010280
  0O   1dxy       0.005623 -0.029570 -0.005162  0.007348 -0.015522  0.009118
  1O   1s        -0.025083 -0.062867 -0.086364 -0.108614  0.080722  0.067892
  1O   2s        -0.108065 -0.248693 -0.387901 -0.550985  0.455710  0.301799
  1O   3s         0.215298  0.357031 -0.116143  0.490111 -0.185676  0.102886
  1O   1pz        0.047507  0.179435  0.221362 -0.553298 -0.165470  0.509829
  1O   1px       -0.050064  0.063078 -0.330424 -0.100350 -0.415385  0.295922
  1O   1py       -0.336680 -0.200199  0.462760  0.139970 -0.205013  0.099593
  1O   2pz       -0.007588  0.005335 -0.200090  0.522052  0.173364 -0.738807
  1O   2px       -0.081764 -0.139937  0.690021  0.072578  0.556046 -0.767526
  1O   2py        0.032251  0.003556 -0.523974 -0.215499  0.578275  0.078267
  1O   1dz2      -0.022174 -0.037258  0.008812  0.005836 -0.045695  0.005042
  1O   1dxz      -0.032773 -0.004621 -0.000381  0.004196 -0.010435 -0.013106
  1O   1dyz      -0.033321 -0.042823 -0.002511 -0.002721  0.000702  0.011049
  1O   1dx2y2    -0.040402 -0.018027 -0.018901 -0.020862  0.085970  0.022595
  1O   1dxy       0.035768  0.045662  0.006259  0.005645 -0.007869 -0.001960
  2H   1s         0.845283 -0.881881 -0.115113  0.171823 -0.277424  0.193877
  2H   2s        -0.738703  0.934660  0.091106 -0.123378  0.102973 -0.415275
  2H   1pz       -0.107098  0.093285 -0.020254  0.050442 -0.027463 -0.012674
  2H   1px       -0.059465  0.046560  0.026741 -0.004718 -0.211869  0.093280
  2H   1py       -0.056444  0.048462 -0.035569 -0.002965  0.010658 -0.074238
  3H   1s         0.845248  0.881913  0.115127  0.171817 -0.277390 -0.193948
  3H   2s        -0.738677 -0.934682 -0.091124 -0.123376  0.102822  0.415274
  3H   1pz       -0.045587 -0.040420 -0.004836  0.041539 -0.016960 -0.031289
  3H   1px        0.063968  0.050504  0.026267  0.002004  0.213174  0.093882
  3H   1py        0.109642  0.095050 -0.040940 -0.029084  0.004839 -0.067750
                     18        19        20        21        22        23   
                   0.85940   0.91339   1.04616   1.13868   1.25211   1.28185
                   0.00000   0.00000   0.00000   0.00000   0.00000   0.00000
                  --------  --------  --------  --------  --------  --------
  0O   1s        -0.107894 -0.003958 -0.121298  0.159841 -0.010857  0.030596
  0O   2s        -0.571986 -0.085813 -0.829737  1.266614 -0.179401  0.211491
  0O   3s         0.944796  0.093672  1.344095 -3.744691  0.939935 -0.228669
  0O   1pz        0.109677  0.408954  0.250191  0.008998 -0.057772 -0.018215
  0O   1px        0.374141  0.333849 -0.078436  0.209517  0.004653  0.091022
  0O   1py       -0.403633  0.135405  0.255161 -0.017230  0.037741 -0.051398
  0O   2pz       -0.148339 -1.065812 -0.808048  0.473832 -0.190312  0.072198
  0O   2px       -0.514704 -0.952650 -0.245108 -1.757064  0.692674 -0.082355
  0O   2py        0.507892 -0.177801 -0.807206  0.429112 -0.112349  0.395689
  0O   1dz2      -0.009135 -0.007073  0.006287  0.027171 -0.101006 -0.119362
  0O   1dxz       0.005621  0.010673 -0.062827  0.027389  0.057493 -0.062994
  0O   1dyz       0.009160 -0.027324 -0.029553  0.052665 -0.024145  0.112607
  0O   1dx2y2     0.034460 -0.026970 -0.049279  0.030761 -0.006027 -0.034503
  0O   1dxy      -0.019927 -0.013487  0.053985  0.045582  0.131048  0.026734
  1O   1s        -0.107899  0.003971 -0.121305 -0.159838  0.010858  0.030595
  1O   2s        -0.572000  0.085884 -0.829792 -1.266588  0.179406  0.211483
  1O   3s         0.944773 -0.093758  1.344270  3.744642 -0.939943 -0.228658
  1O   1pz        0.316682 -0.218251  0.041353 -0.006731  0.068859  0.012888
  1O   1px       -0.386723  0.352341  0.069859  0.209981  0.000924 -0.090863
  1O   1py        0.255064  0.353910 -0.356744 -0.011732 -0.006385  0.053256
  1O   2pz       -0.404223  0.673129 -0.117862 -0.196490  0.115508 -0.184901
  1O   2px        0.531017 -1.003946  0.272311 -1.737306  0.683649  0.085687
  1O   2py       -0.315375 -0.783657  1.129840  0.662621 -0.218884 -0.356419
  1O   1dz2      -0.024473 -0.027454  0.051345  0.042523  0.016554 -0.127117
  1O   1dxz      -0.013428  0.019154  0.077321 -0.009416 -0.042061  0.077150
  1O   1dyz      -0.011536 -0.025411  0.024116  0.047171 -0.100000  0.089457
  1O   1dx2y2     0.026744  0.005320 -0.031580  0.008349 -0.043557 -0.047242
  1O   1dxy      -0.012502  0.005062  0.003033 -0.055620 -0.131762 -0.021328
  2H   1s         0.048708 -0.472471 -0.712811  0.605816 -0.128231  0.155356
  2H   2s        -0.457628 -0.539132 -0.419134  0.077066 -0.000866  0.039044
  2H   1pz       -0.075721 -0.151666 -0.119387  0.149926  0.324653  0.296252
  2H   1px       -0.018073 -0.099552  0.062005  0.036615 -0.515278  0.080050
  2H   1py        0.007752 -0.068997 -0.164907  0.057912 -0.287643 -0.577232
  3H   1s         0.048752  0.472473 -0.712829 -0.605790  0.128223  0.155353
  3H   2s        -0.457636  0.539165 -0.419128 -0.077045  0.000873  0.039041
  3H   1pz       -0.063079  0.070549  0.005765 -0.079378 -0.459633  0.585889
  3H   1px        0.022149 -0.106086 -0.058660  0.043386 -0.492144 -0.106090
  3H   1py        0.040611 -0.146429  0.204504  0.137796 -0.014396  0.269863
                     24        25        26        27        28        29   
                   1.43185   1.56324   1.99697   2.05167   2.23099   2.28020
                   0.00000   0.00000   0.00000   0.00000   0.00000   0.00000
                  --------  --------  --------  --------  --------  --------
  0O   1s         0.008700  0.066143 -0.091678 -0.030480 -0.004730 -0.006452
  0O   2s         0.131918  0.417881 -0.501803 -0.094532 -0.015109 -0.040633
  0O   3s        -0.688627 -0.231287  0.189576 -0.451793 -0.190381  0.130498
  0O   1pz        0.080664 -0.102923  0.362033  0.324634  0.046032  0.014257
  0O   1px       -0.032086  0.170201  0.083720  0.274295 -0.016497  0.016261
  0O   1py       -0.095226  0.030455  0.167256  0.210676 -0.033575  0.066367
  0O   2pz       -0.257178  0.184341 -0.045012  0.117216  0.157074  0.178196
  0O   2px       -0.534979 -0.440152  0.261260 -0.120139  0.223715  0.367173
  0O   2py        0.437647 -0.134878  0.023233 -0.006452  0.140321 -0.022932
  0O   1dz2      -0.061975  0.070516  0.065815  0.083868  0.181272  0.050985
  0O   1dxz      -0.044695 -0.191031  0.085647  0.079802 -0.516520 -0.058319
  0O   1dyz       0.112921  0.045335  0.103434  0.124211  0.133924  0.216167
  0O   1dx2y2    -0.076814  0.082806  0.062479 -0.018990  0.072065 -0.179945
  0O   1dxy      -0.079862 -0.022171  0.083062  0.006166  0.307460 -0.583773
  1O   1s        -0.008701  0.066144  0.091677 -0.030479 -0.004730  0.006454
  1O   2s        -0.131926  0.417883  0.501796 -0.094528 -0.015106  0.040647
  1O   3s         0.688640 -0.231289 -0.189567 -0.451804 -0.190407 -0.130490
  1O   1pz       -0.123903 -0.108351 -0.174890  0.108663  0.057719  0.030909
  1O   1px       -0.026056 -0.163963  0.099562 -0.287075  0.013438  0.015746
  1O   1py       -0.023952  0.043168  0.354336 -0.361647 -0.002569  0.060561
  1O   2pz        0.444769  0.251053  0.063363  0.101994  0.023942 -0.134303
  1O   2px       -0.555676  0.427300  0.258059  0.113671 -0.228998  0.376436
  1O   2py        0.193077 -0.016839 -0.014527 -0.069933 -0.203386  0.085970
  1O   1dz2       0.096728 -0.023792  0.081638 -0.068502 -0.006672  0.129758
  1O   1dxz       0.009848  0.137318  0.011067 -0.059637  0.590268  0.320878
  1O   1dyz      -0.059429 -0.119621  0.102837 -0.085587 -0.233136  0.024492
  1O   1dx2y2     0.098897  0.009077  0.016803 -0.098588 -0.101531  0.268600
  1O   1dxy       0.090012 -0.130591 -0.124592  0.062736 -0.065040  0.483036
  2H   1s         0.005996  0.051827  0.080887  0.232724  0.176988  0.150126
  2H   2s         0.027995  0.040506  0.298270  0.280192  0.069081  0.089302
  2H   1pz        0.141145 -0.371228  0.668093  0.623324  0.166350  0.213550
  2H   1px        0.389349  0.555473  0.307888  0.428371 -0.278524 -0.290286
  2H   1py       -0.570234 -0.047163  0.339893  0.358938  0.165958  0.136255
  3H   1s        -0.005996  0.051830 -0.080889  0.232729  0.176972 -0.150138
  3H   2s        -0.028002  0.040510 -0.298274  0.280193  0.069067 -0.089306
  3H   1pz       -0.444005 -0.290245 -0.295280  0.242108  0.041678 -0.097678
  3H   1px        0.406596 -0.535962  0.336311 -0.453896  0.272349 -0.281150
  3H   1py       -0.366354  0.277650  0.675560 -0.660479 -0.238420  0.244707
                     30        31        32        33        34        35   
                   2.40843   2.64272   2.78279   3.05994   3.10703   3.29174
                   0.00000   0.00000   0.00000   0.00000   0.00000   0.00000
                  --------  --------  --------  --------  --------  --------
  0O   1s         0.067722 -0.003816  0.001441 -0.004007  0.006496  0.022809
  0O   2s         0.329471 -0.009109 -0.017174 -0.132500  0.098626 -0.231422
  0O   3s        -0.077846 -0.042584  0.157733  0.759051 -0.233675  2.126944
  0O   1pz       -0.041849  0.015542  0.000887  0.010327 -0.003774 -0.184069
  0O   1px        0.247641 -0.003483 -0.007259 -0.008328  0.046908 -0.024129
  0O   1py       -0.064171 -0.009049 -0.020194 -0.001809 -0.006831 -0.094178
  0O   2pz       -0.030240 -0.019472 -0.188390 -0.392733  0.253215 -0.573948
  0O   2px       -0.220512  0.040465  0.060687  0.364462 -0.041755  0.674095
  0O   2py        0.021315  0.196207  0.098487 -0.104074  0.306568 -0.412860
  0O   1dz2       0.219850  0.505494  0.580356  0.115805 -0.193285  0.071237
  0O   1dxz       0.018804  0.039197 -0.054501 -0.647129  0.221133  0.428030
  0O   1dyz      -0.218187 -0.366189 -0.287227  0.374703 -0.304036  0.552928
  0O   1dx2y2    -0.549890  0.308329  0.309935  0.115346  0.230902  0.461282
  0O   1dxy       0.142192 -0.146594 -0.148994  0.204117  0.633400  0.009429
  1O   1s         0.067721 -0.003814 -0.001443  0.004007  0.006493 -0.022811
  1O   2s         0.329466 -0.009105  0.017165  0.132494  0.098652  0.231407
  1O   3s        -0.077830 -0.042565 -0.157735 -0.759027 -0.233948 -2.126919
  1O   1pz       -0.005903  0.017955 -0.013612 -0.009638 -0.001167  0.084215
  1O   1px       -0.246230  0.002492 -0.006826 -0.007736 -0.046769 -0.032037
  1O   1py        0.080810 -0.002621 -0.015142  0.005149  0.008536 -0.187656
  1O   2pz       -0.025290 -0.139192  0.211678  0.261691  0.009918  0.227959
  1O   2px        0.222126 -0.035786  0.048880  0.345155  0.034088  0.650434
  1O   2py       -0.001971 -0.140916 -0.040925 -0.332058 -0.398337 -0.692231
  1O   1dz2       0.464296  0.405775 -0.376612  0.247431  0.118646  0.618210
  1O   1dxz       0.012356 -0.154754  0.084841 -0.646629  0.234213  0.276838
  1O   1dyz       0.137912 -0.494821  0.580971  0.263124  0.148448  0.390118
  1O   1dx2y2    -0.408639  0.262318 -0.194275  0.170294  0.409864 -0.105543
  1O   1dxy       0.131007 -0.074032  0.127342  0.223484  0.611770 -0.291107
  2H   1s        -0.057216  0.060034 -0.084977 -0.277644  0.262769 -0.945532
  2H   2s        -0.021299  0.007964 -0.013884 -0.041525  0.043360 -0.193354
  2H   1pz       -0.072421  0.247777  0.158199 -0.045436  0.003581 -0.557029
  2H   1px       -0.038874 -0.024258 -0.074508 -0.249497  0.307944 -0.230758
  2H   1py       -0.064534 -0.340177 -0.348229  0.045214 -0.013219 -0.277576
  3H   1s        -0.057211  0.060020  0.084990  0.277618  0.262892  0.945510
  3H   2s        -0.021294  0.007961  0.013883  0.041519  0.043383  0.193348
  3H   1pz       -0.014528  0.406292 -0.343858  0.050492 -0.005140  0.251175
  3H   1px        0.041454  0.004963 -0.059707 -0.252296 -0.307946 -0.254568
  3H   1py        0.094817  0.112297 -0.173294  0.011791  0.013717 -0.559174
                     36        37   
                   3.43385   3.72384
                   0.00000   0.00000
                  --------  --------
  0O   1s         0.035552  0.008724
  0O   2s         0.020614  0.262727
  0O   3s         0.900877 -0.886154
  0O   1pz       -0.208143 -0.118133
  0O   1px       -0.082026 -0.162990
  0O   1py       -0.128051 -0.038599
  0O   2pz       -0.585606 -0.291428
  0O   2px       -0.276022 -1.078440
  0O   2py       -0.375835  0.005691
  0O   1dz2       0.423822  0.572289
  0O   1dxz       0.433348  0.231598
  0O   1dyz       0.570647  0.238515
  0O   1dx2y2     0.044935 -0.658221
  0O   1dxy       0.245911  0.317857
  1O   1s         0.035553 -0.008724
  1O   2s         0.020624 -0.262727
  1O   3s         0.900838  0.886164
  1O   1pz       -0.078965  0.059854
  1O   1px        0.090496 -0.168241
  1O   1py        0.228086 -0.100615
  1O   2pz       -0.210123  0.174768
  1O   2px        0.299520 -1.092187
  1O   2py        0.653087 -0.156734
  1O   1dz2      -0.334887 -0.258007
  1O   1dxz      -0.185478  0.055043
  1O   1dyz      -0.480437  0.194319
  1O   1dx2y2    -0.355844  0.822440
  1O   1dxy       0.501548 -0.434224
  2H   1s        -1.042599 -0.490294
  2H   2s        -0.221378 -0.185313
  2H   1pz       -0.641537 -0.383116
  2H   1px       -0.264431 -0.148210
  2H   1py       -0.375774 -0.202765
  3H   1s        -1.042596  0.490282
  3H   2s        -0.221380  0.185311
  3H   1pz       -0.254519  0.165934
  3H   1px        0.290861 -0.164403
  3H   1py        0.687982 -0.394066
--------------
SCF ITERATIONS
--------------
               ***  Starting incremental Fock matrix formation  ***

                         ----------------------------
                         !        ITERATION     0   !
                         ----------------------------
   Total Energy        :    -151.320087842768 Eh
   Energy Change       :    -151.320087842768 Eh
   MAX-DP              :       0.050904421751
   RMS-DP              :       0.004679524542
   Actual Damping      :       0.7000
   Actual Level Shift  :       0.2500 Eh
   Int. Num. El.       :    17.99998947 (UP=    8.99999474 DN=    8.99999474)
   Exchange            :   -17.50089204
   Correlation         :    -0.61552355


                         ----------------------------
                         !        ITERATION     1   !
                         ----------------------------
   Total Energy        :    -151.343717317273 Eh
   Energy Change       :      -0.023629474504 Eh
   MAX-DP              :       0.030428252847
   RMS-DP              :       0.002863052604
   Actual Damping      :       0.7000
   Actual Level Shift  :       0.2500 Eh
   Int. Num. El.       :    17.99998988 (UP=    8.99999494 DN=    8.99999494)
   Exchange            :   -17.35545906
   Correlation         :    -0.61299332

                               ***Turning on DIIS***

                         ----------------------------
                         !        ITERATION     2   !
                         ----------------------------
   Total Energy        :    -151.352421621207 Eh
   Energy Change       :      -0.008704303934 Eh
   MAX-DP              :       0.036120685886
   RMS-DP              :       0.004026873150
   Actual Damping      :       0.0000
   Actual Level Shift  :       0.2500 Eh
   Int. Num. El.       :    17.99999007 (UP=    8.99999503 DN=    8.99999503)
   Exchange            :   -17.27567096
   Correlation         :    -0.61150843
   DIIS-Error          :       0.024862439317


                         ----------------------------
                         !        ITERATION     3   !
                         ----------------------------
   Total Energy        :    -151.366909959177 Eh
   Energy Change       :      -0.014488337971 Eh
   MAX-DP              :       0.025163484532
   RMS-DP              :       0.002251432987
   Actual Damping      :       0.0000
   Actual Level Shift  :       0.2500 Eh
   Int. Num. El.       :    17.99999018 (UP=    8.99999509 DN=    8.99999509)
   Exchange            :   -17.19535583
   Correlation         :    -0.60982878
   DIIS-Error          :       0.037580280051
   DIIS coefficients:
      0.50210   0.49790


                         ----------------------------
                         !        ITERATION     4   !
                         ----------------------------
   Total Energy        :    -151.369697743708 Eh
   Energy Change       :      -0.002787784531 Eh
   MAX-DP              :       0.005613005741
   RMS-DP              :       0.000434475267
   Actual Damping      :       0.0000
   Actual Level Shift  :       0.2500 Eh
   Int. Num. El.       :    17.99999001 (UP=    8.99999500 DN=    8.99999500)
   Exchange            :   -17.26290895
   Correlation         :    -0.61100586
   DIIS-Error          :       0.006697044347
   DIIS coefficients:
      0.18700   0.14712   0.66588

                      *** Initiating the SOSCF procedure ***
                           *** Shutting down DIIS ***
                      *** Re-Reading the Fockian *** 
                      *** Removing any level shift *** 

                         ----------------------------
                         !        ITERATION     5   !
                         ----------------------------
   Total Energy        :    -151.369837908656 Eh
   Energy Change       :      -0.000140164948 Eh
   MAX-DP              :       0.002477633630
   RMS-DP              :       0.000233398593
   Orbital gradient    :       0.000546946072
   Orbital Rotation    :       0.000546946072
   Actual Damping      :       0.0000
   Int. Num. El.       :    17.99999002 (UP=    8.99999501 DN=    8.99999501)
   Exchange            :   -17.25384627
   Correlation         :    -0.61097046

               *** Restarting incremental Fock matrix formation ***

                         ----------------------------
                         !        ITERATION     6   !
                         ----------------------------
   Total Energy        :    -151.369842242711 Eh
   Energy Change       :      -0.000004334055 Eh
   MAX-DP              :       0.000491419634
   RMS-DP              :       0.000046159904
   Orbital gradient    :       0.000125999237
   Orbital Rotation    :       0.000353539732
   Actual Damping      :       0.0000
   Int. Num. El.       :    17.99999005 (UP=    8.99999502 DN=    8.99999502)
   Exchange            :   -17.25417302
   Correlation         :    -0.61101964


                         ----------------------------
                         !        ITERATION     7   !
                         ----------------------------
   Total Energy        :    -151.369842062845 Eh
   Energy Change       :       0.000000179866 Eh
   MAX-DP              :       0.000285061231
   RMS-DP              :       0.000025527534
   Orbital gradient    :       0.000214274366
   Orbital Rotation    :       0.000136034365
   Actual Damping      :       0.0000
   Int. Num. El.       :    17.99999005 (UP=    8.99999502 DN=    8.99999502)
   Exchange            :   -17.25302118
   Correlation         :    -0.61099538


                         ----------------------------
                         !        ITERATION     8   !
                         ----------------------------
   Total Energy        :    -151.369842452733 Eh
   Energy Change       :      -0.000000389887 Eh
   MAX-DP              :       0.000034268258
   RMS-DP              :       0.000004222466
   Orbital gradient    :       0.000016981084
   Orbital Rotation    :       0.000036019155
   Actual Damping      :       0.0000
   Int. Num. El.       :    17.99999005 (UP=    8.99999502 DN=    8.99999502)
   Exchange            :   -17.25375936
   Correlation         :    -0.61100924


                         ----------------------------
                         !        ITERATION     9   !
                         ----------------------------
   Total Energy        :    -151.369842454179 Eh
   Energy Change       :      -0.000000001446 Eh
   MAX-DP              :       0.000013473968
   RMS-DP              :       0.000001617976
   Orbital gradient    :       0.000010847709
   Orbital Rotation    :       0.000013000018
   Actual Damping      :       0.0000
   Int. Num. El.       :    17.99999005 (UP=    8.99999502 DN=    8.99999502)
   Exchange            :   -17.25374109
   Correlation         :    -0.61100911

                 **** Energy Check signals convergence ****
              ***Rediagonalizing the Fockian in SOSCF/NRSCF***

               *****************************************************
               *                     SUCCESS                       *
               *           SCF CONVERGED AFTER  10 CYCLES          *
               *****************************************************

Setting up the final grid:

General Integration Accuracy     IntAcc      ...  5.010
Radial Grid Type                 RadialGrid  ... Gauss-Chebyshev
Angular Grid (max. acc.)         AngularGrid ... Lebedev-434
Angular grid pruning method      GridPruning ... 3 (G Style)
Weight generation scheme         WeightScheme... Becke
Basis function cutoff            BFCut       ...    1.0000e-11
Integration weight cutoff        WCut        ...    1.0000e-14
Grids for H and He will be reduced by one unit

# of grid points (after initial pruning)     ...  35068 (   0.0 sec)
# of grid points (after weights+screening)   ...  34519 (   0.0 sec)
nearest neighbour list constructed           ...    0.0 sec
Grid point re-assignment to atoms done       ...    0.0 sec
Grid point division into batches done        ...    0.3 sec
Reduced shell lists constructed in    0.4 sec

Total number of grid points                  ...    34519
Total number of batches                      ...      542
Average number of points per batch           ...       63
Average number of grid points per atom       ...     8630
Average number of shells per batch           ...    15.01 (83.41%)
Average number of basis functions per batch  ...    32.15 (84.61%)
Average number of large shells per batch     ...    14.12 (94.07%)
Average number of large basis fcns per batch ...    30.24 (94.05%)
Maximum spatial batch extension              ...  16.27, 16.27, 13.18 au
Average spatial batch extension              ...   0.52,  0.56,  0.51 au

Final grid set up in    0.4 sec
Final integration                            ... done (   0.1 sec)
Change in XC energy                          ...    -0.000018088
Integrated number of electrons               ...    18.000000497
Previous integrated no of electrons          ...    17.999990049

----------------
TOTAL SCF ENERGY
----------------

Total Energy       :         -151.36986054 Eh           -4118.98331 eV

Components:
Nuclear Repulsion  :           39.08419969 Eh            1063.53514 eV
Electronic Energy  :         -190.45406023 Eh           -5182.51845 eV
One Electron Energy:         -285.73365093 Eh           -7775.20793 eV
Two Electron Energy:           95.27959070 Eh            2592.68947 eV

Virial components:
Potential Energy   :         -302.05944644 Eh           -8219.45541 eV
Kinetic Energy     :          150.68958589 Eh            4100.47210 eV
Virial Ratio       :            2.00451441


DFT components:
N(Alpha)           :        9.000000248670 electrons
N(Beta)            :        9.000000248670 electrons
N(Total)           :       18.000000497339 electrons
E(X)               :      -17.253761258399 Eh       
E(C)               :       -0.611005060726 Eh       
E(XC)              :      -17.864766319125 Eh       
DFET-embed. en.    :        0.000000000000 Eh       

---------------
SCF CONVERGENCE
---------------

  Last Energy change         ...   -1.2622e-09  Tolerance :   1.0000e-08
  Last MAX-Density change    ...    1.6315e-06  Tolerance :   1.0000e-07
  Last RMS-Density change    ...    1.2957e-07  Tolerance :   5.0000e-09
  Last Orbital Gradient      ...    4.2253e-07  Tolerance :   1.0000e-05
  Last Orbital Rotation      ...    6.5791e-07  Tolerance :   1.0000e-05

             **** THE GBW FILE WAS UPDATED (H2O2.gbw) ****
             **** DENSITY FILE WAS UPDATED (H2O2.scfp) ****
             **** ENERGY FILE WAS UPDATED (H2O2.en.tmp) ****
             **** THE GBW FILE WAS UPDATED (H2O2.gbw) ****
             **** DENSITY FILE WAS UPDATED (H2O2.scfp) ****
----------------
ORBITAL ENERGIES
----------------

  NO   OCC          E(Eh)            E(eV) 
   0   2.0000     -18.803693      -511.6745 
   1   2.0000     -18.803410      -511.6668 
   2   2.0000      -1.064109       -28.9559 
   3   2.0000      -0.765758       -20.8373 
   4   2.0000      -0.510292       -13.8857 
   5   2.0000      -0.420049       -11.4301 
   6   2.0000      -0.369463       -10.0536 
   7   2.0000      -0.220666        -6.0046 
   8   2.0000      -0.201670        -5.4877 
   9   0.0000       0.024902         0.6776 
  10   0.0000       0.035800         0.9742 
  11   0.0000       0.130811         3.5595 
  12   0.0000       0.519600        14.1390 
  13   0.0000       0.529880        14.4188 
  14   0.0000       0.826484        22.4898 
  15   0.0000       0.838836        22.8259 
  16   0.0000       0.854028        23.2393 
  17   0.0000       0.920184        25.0395 
  18   0.0000       0.946315        25.7505 
  19   0.0000       0.991279        26.9741 
  20   0.0000       1.109799        30.1992 
  21   0.0000       1.205745        32.8100 
  22   0.0000       1.296300        35.2741 
  23   0.0000       1.329996        36.1910 
  24   0.0000       1.479388        40.2562 
  25   0.0000       1.614996        43.9463 
  26   0.0000       2.050891        55.8076 
  27   0.0000       2.108630        57.3788 
  28   0.0000       2.324325        63.2481 
  29   0.0000       2.371967        64.5445 
  30   0.0000       2.510695        68.3195 
  31   0.0000       2.744935        74.6935 
  32   0.0000       2.890592        78.6570 
  33   0.0000       3.166335        86.1604 
  34   0.0000       3.208242        87.3007 
  35   0.0000       3.390235        92.2530 
  36   0.0000       3.528406        96.0128 
  37   0.0000       3.821741       103.9949 
------------------
MOLECULAR ORBITALS
------------------
                      0         1         2         3         4         5   
                 -18.80369 -18.80341  -1.06411  -0.76576  -0.51029  -0.42005
                   2.00000   2.00000   2.00000   2.00000   2.00000   2.00000
                  --------  --------  --------  --------  --------  --------
  0O   1s         0.697531 -0.700913  0.198374 -0.193667 -0.008154 -0.087849
  0O   2s        -0.028468  0.027741  0.397833 -0.402581 -0.011327 -0.178754
  0O   3s         0.017499 -0.010789  0.189838 -0.231191  0.006860 -0.234410
  0O   1pz        0.001415 -0.001443 -0.049842  0.098460  0.229536 -0.185300
  0O   1px       -0.001092  0.000470  0.136642  0.100922  0.343825 -0.009236
  0O   1py        0.000978 -0.000784 -0.041112  0.061050 -0.006129 -0.328961
  0O   2pz       -0.000608  0.000863 -0.010323  0.015366  0.093934 -0.083861
  0O   2px        0.004848 -0.000832  0.047052  0.044393  0.149687  0.003471
  0O   2py       -0.001022  0.000427 -0.003911  0.012279 -0.023472 -0.200188
  0O   1dz2       0.000094  0.000718 -0.007899 -0.005496 -0.015285  0.002519
  0O   1dxz      -0.000325  0.000433 -0.003281 -0.003716  0.000720 -0.005321
  0O   1dyz      -0.000398  0.000349  0.003680 -0.004924 -0.003907  0.010175
  0O   1dx2y2    -0.000612 -0.000685  0.016949  0.004760  0.013210 -0.008672
  0O   1dxy       0.000075  0.000527 -0.004332  0.001112 -0.013130 -0.018876
  1O   1s        -0.700650 -0.697795  0.198375  0.193667 -0.008152  0.087848
  1O   2s         0.028591  0.027614  0.397834  0.402582 -0.011323  0.178749
  1O   3s        -0.017547 -0.010711  0.189841  0.231189  0.006858  0.234418
  1O   1pz       -0.000560 -0.000664 -0.020637 -0.033793  0.165251 -0.059830
  1O   1px       -0.001036 -0.000403 -0.134563  0.104824 -0.355471 -0.012930
  1O   1py        0.001671  0.001512  0.065669  0.107131 -0.131430 -0.372679
  1O   2pz        0.000098  0.000454 -0.008120 -0.002059  0.080169 -0.058539
  1O   2px        0.004831  0.000772 -0.046511  0.044907 -0.154819  0.002724
  1O   2py       -0.001272 -0.000880  0.010336  0.018352 -0.037196 -0.209015
  1O   1dz2      -0.000603  0.000235 -0.012024 -0.000596 -0.008268  0.005320
  1O   1dxz      -0.000235 -0.000089  0.001690 -0.004044 -0.006939  0.007800
  1O   1dyz      -0.000299 -0.000312 -0.002739 -0.003280  0.006947  0.001016
  1O   1dx2y2     0.000347 -0.000935  0.014279 -0.007813  0.017706  0.013044
  1O   1dxy       0.000150  0.000734 -0.005825  0.001906 -0.010864  0.017590
  2H   1s         0.000578 -0.001060  0.094946 -0.206146 -0.252103  0.171631
  2H   2s        -0.001218  0.002895 -0.002961 -0.012442 -0.065385  0.057282
  2H   1pz        0.001768 -0.001600  0.013804 -0.024064 -0.020270  0.011394
  2H   1px        0.000662 -0.000066  0.008472 -0.009857 -0.003999  0.014791
  2H   1py        0.000967 -0.000945  0.007082 -0.013539 -0.016035 -0.002168
  3H   1s        -0.000583 -0.001057  0.094946  0.206146 -0.252103 -0.171627
  3H   2s         0.001231  0.002890 -0.002959  0.012443 -0.065387 -0.057288
  3H   1pz       -0.000750 -0.000658  0.005954  0.009896 -0.005686 -0.009480
  3H   1px        0.000737  0.000129 -0.009055 -0.010859  0.004764  0.015407
  3H   1py        0.001851  0.001725 -0.013967 -0.025371  0.025079  0.005106
                      6         7         8         9        10        11   
                  -0.36946  -0.22067  -0.20167   0.02490   0.03580   0.13081
                   2.00000   2.00000   2.00000   0.00000   0.00000   0.00000
                  --------  --------  --------  --------  --------  --------
  0O   1s        -0.060818 -0.040456  0.041705 -0.064784 -0.088314  0.077137
  0O   2s        -0.120338 -0.075262  0.087216 -0.120998 -0.181472  0.195212
  0O   3s        -0.165859 -0.166677  0.136546 -0.544065 -0.623855  0.365781
  0O   1pz       -0.326125 -0.002264  0.372944  0.174282  0.198051  0.097221
  0O   1px        0.277136  0.054969 -0.060946  0.109252 -0.153974  0.521303
  0O   1py        0.049743 -0.461558 -0.277957  0.101278  0.117940 -0.019219
  0O   2pz       -0.215480  0.023854  0.258852  0.228153  0.254530  0.124581
  0O   2px        0.165005  0.038318 -0.063836  0.133996 -0.146699  0.731039
  0O   2py        0.044663 -0.329545 -0.226180  0.132116  0.167845 -0.047979
  0O   1dz2       0.004061 -0.004321 -0.011095 -0.001353 -0.006468  0.011355
  0O   1dxz      -0.023130  0.008872 -0.007172  0.003666  0.005619 -0.005536
  0O   1dyz       0.003929  0.009502  0.001989 -0.004427 -0.002470  0.004736
  0O   1dx2y2     0.010194 -0.001535 -0.005583 -0.004374  0.011514 -0.014534
  0O   1dxy       0.000664  0.001115 -0.005031 -0.001683  0.006357  0.005614
  1O   1s        -0.060818 -0.040457 -0.041705 -0.064856  0.088256 -0.077141
  1O   2s        -0.120344 -0.075264 -0.087220 -0.121142  0.181362 -0.195221
  1O   3s        -0.165842 -0.166680 -0.136526 -0.544592  0.623394 -0.365804
  1O   1pz       -0.300518  0.281924 -0.467482  0.067742 -0.089689 -0.060561
  1O   1px       -0.258651 -0.063221 -0.036148 -0.116288 -0.145585  0.525949
  1O   1py        0.168599  0.364108  0.014860 -0.185770  0.218062  0.035750
  1O   2pz       -0.204938  0.221259 -0.346253  0.089460 -0.102486 -0.088793
  1O   2px       -0.152612 -0.045552 -0.045985 -0.143294 -0.136289  0.737328
  1O   2py        0.101826  0.244136 -0.015347 -0.243008  0.292053  0.026353
  1O   1dz2      -0.003305 -0.009856  0.004228  0.004250  0.004484 -0.006287
  1O   1dxz       0.018954 -0.005558 -0.002994 -0.004285 -0.000647 -0.006270
  1O   1dyz      -0.010346  0.002673 -0.011116  0.004400 -0.000839  0.003634
  1O   1dx2y2     0.003466 -0.003874  0.002224 -0.000662 -0.012954  0.018152
  1O   1dxy      -0.013491  0.006409  0.008925  0.000767 -0.007968 -0.001808
  2H   1s         0.049174  0.177746 -0.158653  0.135600  0.159643  0.106045
  2H   2s        -0.002365  0.043952 -0.072607  0.866823  0.892554  0.446502
  2H   1pz       -0.007862  0.015268  0.005670 -0.011040 -0.001584 -0.012370
  2H   1px        0.015135  0.001923 -0.003083  0.000874 -0.018003  0.020871
  2H   1py        0.005026 -0.012968 -0.022282 -0.003159 -0.002077 -0.011187
  3H   1s         0.049171  0.177746  0.158649  0.135740 -0.159513 -0.106030
  3H   2s        -0.002368  0.043966  0.072589  0.867636 -0.891818 -0.446466
  3H   1pz       -0.010065  0.019892 -0.018433 -0.006717 -0.001004  0.003825
  3H   1px       -0.014605 -0.002960 -0.002371 -0.000337 -0.018019  0.020394
  3H   1py        0.001221  0.000717 -0.013883  0.009343 -0.002270 -0.016827
                     12        13        14        15        16        17   
                   0.51960   0.52988   0.82648   0.83884   0.85403   0.92018
                   0.00000   0.00000   0.00000   0.00000   0.00000   0.00000
                  --------  --------  --------  --------  --------  --------
  0O   1s         0.033962  0.066839  0.081413  0.090030  0.098171  0.066194
  0O   2s         0.146883  0.260274  0.355997  0.438748  0.545560  0.267129
  0O   3s        -0.241107 -0.344488  0.158978 -0.386780 -0.267126  0.285353
  0O   1pz       -0.245459 -0.267580  0.063489  0.521761  0.102525  0.337511
  0O   1px       -0.052161  0.056507 -0.335374 -0.194602  0.397019 -0.357080
  0O   1py       -0.235385 -0.057282  0.532978 -0.286138  0.202824 -0.363970
  0O   2pz       -0.008961 -0.041569 -0.066168 -0.498087 -0.322239 -0.600235
  0O   2px       -0.084029 -0.111341  0.685985  0.170276 -0.520409  0.921932
  0O   2py       -0.017210  0.016764 -0.558011  0.245556 -0.476058  0.320151
  0O   1dz2      -0.034667 -0.026921 -0.011534 -0.004330 -0.048027 -0.015644
  0O   1dxz      -0.045688 -0.032704 -0.000480  0.007796  0.015712  0.011548
  0O   1dyz      -0.041202 -0.047282 -0.002674 -0.004917 -0.003078 -0.016952
  0O   1dx2y2     0.011426 -0.016300  0.020028  0.003411  0.088092  0.011573
  0O   1dxy      -0.006572 -0.031051  0.000137 -0.006820 -0.018669 -0.011532
  1O   1s         0.034011 -0.066818 -0.081450  0.090038  0.098125 -0.066194
  1O   2s         0.147076 -0.260186 -0.356209  0.438761  0.545356 -0.267128
  1O   3s        -0.241353  0.344323 -0.158848 -0.386621 -0.267232 -0.285449
  1O   1pz       -0.043217  0.176658  0.263777  0.595955 -0.066604 -0.508732
  1O   1px        0.060650  0.043447 -0.341110  0.161696 -0.398306 -0.332006
  1O   1py        0.336069 -0.211821  0.463318 -0.103367 -0.215194 -0.069093
  1O   2pz        0.008088  0.037063 -0.258798 -0.550979  0.070923  0.716706
  1O   2px        0.084120 -0.113605  0.691460 -0.139519  0.528345  0.882928
  1O   2py        0.017516 -0.010645 -0.491137  0.120057  0.563456 -0.138816
  1O   1dz2       0.019301 -0.034493  0.009182  0.000256 -0.048834 -0.002407
  1O   1dxz       0.032749 -0.004859 -0.002429 -0.009992 -0.014881  0.015069
  1O   1dyz       0.030641 -0.038856 -0.000528  0.003260 -0.001671 -0.011566
  1O   1dx2y2     0.037902 -0.016859 -0.021256  0.007112  0.089412 -0.023575
  1O   1dxy      -0.036694  0.047392  0.001002 -0.000919 -0.008038  0.003315
  2H   1s        -0.853074 -0.886595 -0.092590 -0.114254 -0.264373 -0.198375
  2H   2s         0.722372  0.914039  0.077229  0.058277  0.098791  0.373148
  2H   1pz        0.120884  0.106529 -0.016973 -0.057139 -0.039186  0.004230
  2H   1px        0.059155  0.049517  0.038953  0.039014 -0.227107 -0.101793
  2H   1py        0.061763  0.057078 -0.040563  0.005076  0.018015  0.078510
  3H   1s        -0.853706  0.885989  0.092651 -0.114298 -0.264316  0.198451
  3H   2s         0.723023 -0.913514 -0.077276  0.058310  0.098626 -0.373121
  3H   1pz        0.053117 -0.045233 -0.009859 -0.049892 -0.029902  0.040099
  3H   1px       -0.064327  0.053946  0.038653 -0.035854  0.229154 -0.102909
  3H   1py       -0.122462  0.109884 -0.043034  0.032224  0.006060  0.066008
                     18        19        20        21        22        23   
                   0.94631   0.99128   1.10980   1.20574   1.29630   1.33000
                   0.00000   0.00000   0.00000   0.00000   0.00000   0.00000
                  --------  --------  --------  --------  --------  --------
  0O   1s         0.117917 -0.003695 -0.118323 -0.163973  0.020556  0.032763
  0O   2s         0.616051 -0.101722 -0.807558 -1.270507  0.254722  0.224749
  0O   3s        -0.962473  0.218689  1.326996  3.661919 -1.161342 -0.243053
  0O   1pz       -0.083603  0.412654  0.253393 -0.027526  0.066380 -0.014680
  0O   1px       -0.373445  0.322425 -0.063022 -0.201877  0.005466  0.095284
  0O   1py        0.411464  0.156691  0.267489  0.014138 -0.036542 -0.062354
  0O   2pz        0.126217 -1.080219 -0.814589 -0.420934  0.217907  0.073355
  0O   2px        0.505376 -0.859183 -0.265064  1.683199 -0.802278 -0.081907
  0O   2py       -0.493864 -0.216373 -0.823168 -0.413203  0.130774  0.425327
  0O   1dz2       0.009410 -0.006536  0.006255 -0.020462  0.094049 -0.111119
  0O   1dxz      -0.005342  0.011347 -0.058201 -0.031195 -0.049489 -0.055976
  0O   1dyz      -0.007300 -0.026833 -0.024888 -0.043529  0.023955  0.102183
  0O   1dx2y2    -0.031768 -0.024768 -0.046702 -0.027680  0.006232 -0.027092
  0O   1dxy       0.020944 -0.011203  0.052593 -0.050858 -0.116617  0.022704
  1O   1s         0.117919  0.003707 -0.118343  0.163963 -0.020555  0.032763
  1O   2s         0.616063  0.101800 -0.807705  1.270430 -0.254715  0.224750
  1O   3s        -0.962467 -0.218774  1.327417 -3.661782  1.161329 -0.243080
  1O   1pz       -0.301191 -0.208490  0.035363  0.019719 -0.074316  0.022235
  1O   1px        0.384824  0.340701  0.054554 -0.203267  0.009609 -0.095504
  1O   1py       -0.277334  0.373134 -0.368092 -0.002359  0.012490  0.059725
  1O   2pz        0.378751  0.665318 -0.111972  0.161095 -0.131415 -0.202426
  1O   2px       -0.520351 -0.910643  0.292140  1.666069 -0.791974  0.085745
  1O   2py        0.317862 -0.824626  1.146041 -0.615883  0.252442 -0.380363
  1O   1dz2       0.022165 -0.026621  0.046145 -0.036587 -0.013991 -0.118092
  1O   1dxz       0.014082  0.018134  0.073248  0.009579  0.038855  0.068589
  1O   1dyz       0.009610 -0.023875  0.022002 -0.037611  0.093400  0.081488
  1O   1dx2y2    -0.025561  0.003937 -0.031467 -0.003931  0.040539 -0.038463
  1O   1dxy       0.013533  0.002818  0.004931  0.061466  0.115911 -0.020015
  2H   1s        -0.028769 -0.506501 -0.722676 -0.584328  0.161411  0.166602
  2H   2s         0.432245 -0.517924 -0.405436 -0.074209  0.001938  0.039084
  2H   1pz        0.078306 -0.165334 -0.120825 -0.163046 -0.321942  0.302900
  2H   1px        0.017060 -0.108661  0.056577  0.009506  0.516703  0.071043
  2H   1py       -0.014379 -0.073614 -0.180359 -0.053850  0.302081 -0.582452
  3H   1s        -0.028747  0.506554 -0.722704  0.584252 -0.161393  0.166600
  3H   2s         0.432269  0.517929 -0.405416  0.074162 -0.001939  0.039086
  3H   1pz        0.069273  0.077885  0.014526  0.094584  0.466569  0.594796
  3H   1px       -0.021400 -0.115808 -0.053455  0.001886  0.493449 -0.097557
  3H   1py       -0.037059 -0.158377  0.217413 -0.143585  0.027369  0.269664
                     24        25        26        27        28        29   
                   1.47939   1.61500   2.05089   2.10863   2.32432   2.37197
                   0.00000   0.00000   0.00000   0.00000   0.00000   0.00000
                  --------  --------  --------  --------  --------  --------
  0O   1s        -0.012841  0.069571 -0.093722 -0.031902 -0.003575  0.007029
  0O   2s        -0.164907  0.434114 -0.502241 -0.096104 -0.006058  0.040314
  0O   3s         0.789989 -0.231894  0.148476 -0.461483 -0.207260 -0.105415
  0O   1pz       -0.092368 -0.102488  0.372976  0.334105  0.062801 -0.022025
  0O   1px        0.031955  0.177088  0.092952  0.285385 -0.005361 -0.016472
  0O   1py        0.100346  0.031902  0.171092  0.219001 -0.031316 -0.077278
  0O   2pz        0.266199  0.179050 -0.032122  0.123428  0.162532 -0.176406
  0O   2px        0.592106 -0.459552  0.244827 -0.124669  0.207582 -0.351527
  0O   2py       -0.458369 -0.136327  0.029560  0.000341  0.135401  0.014120
  0O   1dz2       0.052377  0.057590  0.058511  0.069659  0.179591 -0.055561
  0O   1dxz       0.039643 -0.172599  0.082381  0.087746 -0.525764  0.068987
  0O   1dyz      -0.103130  0.043528  0.090850  0.109297  0.139670 -0.213089
  0O   1dx2y2     0.069110  0.080029  0.059171 -0.016188  0.063381  0.180223
  0O   1dxy       0.072820 -0.024139  0.083699 -0.001058  0.302244  0.587342
  1O   1s         0.012843  0.069570  0.093723 -0.031899 -0.003575 -0.007031
  1O   2s         0.164921  0.434103  0.502238 -0.096086 -0.006053 -0.040328
  1O   3s        -0.790011 -0.231845 -0.148453 -0.461492 -0.207285  0.105408
  1O   1pz        0.136227 -0.109268 -0.180586  0.110314  0.068846 -0.031619
  1O   1px        0.025218 -0.170832  0.109296 -0.298489  0.001479 -0.016167
  1O   1py        0.020701  0.041893  0.363980 -0.373837 -0.014547 -0.073933
  1O   2pz       -0.461684  0.248826  0.056343  0.102871  0.032117  0.128255
  1O   2px        0.613565  0.446895  0.242208  0.118000 -0.213274 -0.360552
  1O   2py       -0.204760 -0.012766 -0.001258 -0.079195 -0.203216 -0.092047
  1O   1dz2      -0.086999 -0.028171  0.072741 -0.063789 -0.008968 -0.124610
  1O   1dxz      -0.010073  0.122415  0.008413 -0.069799  0.594060 -0.315285
  1O   1dyz       0.050272 -0.106174  0.092358 -0.071449 -0.229383 -0.028107
  1O   1dx2y2    -0.090806  0.013192  0.011123 -0.083814 -0.111343 -0.269505
  1O   1dxy      -0.081153 -0.121495 -0.122294  0.060736 -0.074744 -0.492266
  2H   1s        -0.013768  0.041370  0.115592  0.261436  0.188358 -0.160386
  2H   2s        -0.028119  0.040278  0.290166  0.273606  0.074512 -0.089116
  2H   1pz       -0.139735 -0.376272  0.676669  0.629476  0.171569 -0.219385
  2H   1px       -0.401279  0.563857  0.311587  0.439073 -0.249630  0.273151
  2H   1py        0.570916 -0.055704  0.345994  0.358011  0.175023 -0.130730
  3H   1s         0.013766  0.041363 -0.115606  0.261438  0.188345  0.160398
  3H   2s         0.028132  0.040283 -0.290175  0.273594  0.074499  0.089118
  3H   1pz        0.442692 -0.289326 -0.298013  0.246923  0.038614  0.104770
  3H   1px       -0.418444 -0.544218  0.340359 -0.464912  0.243400  0.263623
  3H   1py        0.367980  0.287631  0.685620 -0.663352 -0.248238 -0.243686
                     30        31        32        33        34        35   
                   2.51070   2.74494   2.89059   3.16633   3.20824   3.39024
                   0.00000   0.00000   0.00000   0.00000   0.00000   0.00000
                  --------  --------  --------  --------  --------  --------
  0O   1s        -0.069375 -0.003691 -0.001436  0.004125  0.006260  0.021400
  0O   2s        -0.331361 -0.008295  0.016993  0.129639  0.096932 -0.230688
  0O   3s         0.064929 -0.043906 -0.155476 -0.737201 -0.231962  2.090029
  0O   1pz        0.041982  0.017058 -0.003757 -0.016806 -0.006887 -0.183960
  0O   1px       -0.252705 -0.003641  0.007697  0.011102  0.047107 -0.025445
  0O   1py        0.065552 -0.011785  0.022472  0.001698 -0.013326 -0.092115
  0O   2pz        0.042157 -0.016575  0.183544  0.388704  0.251788 -0.566618
  0O   2px        0.224094  0.040637 -0.058549 -0.351465 -0.037984  0.656141
  0O   2py       -0.011415  0.190451 -0.094196  0.100363  0.306473 -0.407720
  0O   1dz2      -0.224462  0.510646 -0.582688 -0.116456 -0.191523  0.079849
  0O   1dxz      -0.026125  0.032148  0.053141  0.646005  0.215265  0.432657
  0O   1dyz       0.208880 -0.367052  0.288994 -0.375853 -0.310728  0.560497
  0O   1dx2y2     0.552320  0.309205 -0.313472 -0.116570  0.226178  0.451175
  0O   1dxy      -0.136271 -0.145906  0.143906 -0.208056  0.636088  0.009856
  1O   1s        -0.069374 -0.003690  0.001439 -0.004125  0.006256 -0.021403
  1O   2s        -0.331355 -0.008291 -0.016982 -0.129632  0.096956  0.230670
  1O   3s         0.064910 -0.043881  0.155478  0.737183 -0.232224 -2.090026
  1O   1pz        0.005415  0.020847  0.017293  0.014780  0.000422  0.085345
  1O   1px        0.251303  0.002520  0.007070  0.010167 -0.046922 -0.033384
  1O   1py       -0.082068 -0.001420  0.015138 -0.009308  0.015562 -0.185956
  1O   2pz        0.028275 -0.133363 -0.205110 -0.260161  0.008655  0.224477
  1O   2px       -0.226144 -0.036218 -0.047077 -0.332322  0.030390  0.632790
  1O   2py       -0.013120 -0.138198  0.041243  0.326421 -0.397300 -0.683338
  1O   1dz2      -0.458343  0.408904  0.378085 -0.248393  0.127146  0.617945
  1O   1dxz      -0.002947 -0.149196 -0.082772  0.648274  0.239720  0.281079
  1O   1dyz      -0.133270 -0.499702 -0.584037 -0.264364  0.150590  0.393938
  1O   1dx2y2     0.416175  0.261285  0.197273 -0.170041  0.408348 -0.091143
  1O   1dxy      -0.131450 -0.077596 -0.122451 -0.219652  0.610153 -0.295077
  2H   1s         0.074474  0.061349  0.084450  0.272761  0.262100 -0.940529
  2H   2s         0.023248  0.008167  0.013780  0.040843  0.042451 -0.187708
  2H   1pz        0.078708  0.239420 -0.150783  0.044145  0.005515 -0.547610
  2H   1px        0.042893 -0.024813  0.070966  0.240519  0.297245 -0.228754
  2H   1py        0.066915 -0.325842  0.335712 -0.043909 -0.012285 -0.272460
  3H   1s         0.074470  0.061332 -0.084466 -0.272744  0.262218  0.940536
  3H   2s         0.023241  0.008164 -0.013779 -0.040837  0.042474  0.187706
  3H   1pz        0.017755  0.390886  0.330096 -0.049145 -0.003645  0.247099
  3H   1px       -0.045753  0.006221  0.056790  0.243249 -0.297342 -0.252173
  3H   1py       -0.100513  0.106245  0.168155 -0.011404  0.011587 -0.549373
                     36        37   
                   3.52841   3.82174
                   0.00000   0.00000
                  --------  --------
  0O   1s        -0.034641  0.008915
  0O   2s        -0.018644  0.265288
  0O   3s        -0.882979 -0.908813
  0O   1pz        0.204589 -0.113558
  0O   1px        0.078836 -0.159187
  0O   1py        0.125986 -0.036777
  0O   2pz        0.574227 -0.280698
  0O   2px        0.270307 -1.076739
  0O   2py        0.367583  0.011136
  0O   1dz2      -0.423595  0.571588
  0O   1dxz      -0.432630  0.226724
  0O   1dyz      -0.574258  0.231802
  0O   1dx2y2    -0.052985 -0.664728
  0O   1dxy      -0.249465  0.317062
  1O   1s        -0.034642 -0.008914
  1O   2s        -0.018667 -0.265286
  1O   3s        -0.882857  0.908830
  1O   1pz        0.077634  0.057606
  1O   1px       -0.087162 -0.164239
  1O   1py       -0.224315 -0.096413
  1O   2pz        0.206638  0.169846
  1O   2px       -0.293397 -1.090020
  1O   2py       -0.639635 -0.145831
  1O   1dz2       0.340414 -0.265822
  1O   1dxz       0.182015  0.052422
  1O   1dyz       0.484907  0.189280
  1O   1dx2y2     0.351118  0.824479
  1O   1dxy      -0.503943 -0.430365
  2H   1s         1.028154 -0.474674
  2H   2s         0.213272 -0.178151
  2H   1pz        0.626228 -0.369929
  2H   1px        0.257815 -0.143595
  2H   1py        0.366984 -0.195778
  3H   1s         1.028122  0.474656
  3H   2s         0.213267  0.178146
  3H   1pz        0.248346  0.160199
  3H   1px       -0.283604 -0.159229
  3H   1py       -0.671693 -0.380481


-------
DENSITY
-------
                  0          1          2          3          4          5    
      0       2.139093   0.294764   0.290526   0.045857  -0.034286   0.028513
      1       0.294764   0.763514   0.508073   0.085835  -0.062541   0.044798
      2       0.290526   0.508073   0.437682   0.236436  -0.112685   0.171807
      3       0.045857   0.085835   0.236436   0.689310  -0.058959  -0.102455
      4      -0.034286  -0.062541  -0.112685  -0.058959   0.461398   0.013655
      5       0.028513   0.044798   0.171807  -0.102455   0.013655   0.812883
      6       0.046967   0.100772   0.163757   0.411765  -0.081939  -0.130612
      7      -0.022143  -0.059875  -0.086989  -0.083914   0.228127   0.013975
      8       0.029589   0.058586   0.119595  -0.130125   0.005065   0.568202
      9      -0.003144  -0.004642  -0.004797  -0.019152  -0.010697   0.009068
     10       0.001497   0.005290   0.005712   0.011592  -0.012023  -0.003198
     11      -0.000483   0.001356  -0.005099  -0.008025   0.000119  -0.017038
     12       0.004713   0.009255   0.004080  -0.002280   0.020999   0.010266
     13       0.000157   0.001524   0.004536  -0.002573  -0.008535   0.014905
[...]

------------------------
Batching info for step 1
------------------------
Number of perturbation per batch  ...            3
Number of batches                 ...            1
Storage mode                      ...       InCore

Transforming the overlap derivative matrices     ... done   (      0.0 sec)

------------------------
Batching info for step 1
------------------------
Number of perturbation per batch  ...            3
Number of batches                 ...            1
Storage mode                      ...       InCore

Making the Q(x) pseudodensities                  ... done   (      0.0 sec)
Adding the E*S(x)*S(y) terms to the Hessian      ... done   (      0.0 sec)
Calculating energy weighted overlap derivatives  ... done   (      0.0 sec)

------------------------
Batching info for step 3
------------------------
Number of perturbation per batch  ...            3
Number of batches                 ...            1
Storage mode                      ...       InCore

Two electron integral derivatives (RI)           ... done   (      0.2 sec)

------------------------
Batching info for step 4
------------------------
Number of perturbation per batch  ...            3
Number of batches                 ...            1
Storage mode                      ...       InCore

Exchange-correlation integral derivatives        ... done   (      0.7 sec)
tr(F(y)Q(x)) contribution to the Hessian         ... done   (      0.0 sec)

------------------------
Batching info for step 5
------------------------
Number of perturbation per batch  ...            3
Number of batches                 ...            1
Storage mode                      ...       InCore

Response fock operator R(S(x)) (RI)              ... (RIJ)done   (      0.2 sec)

------------------------
Batching info for step 6
------------------------
Number of perturbation per batch  ...            3
Number of batches                 ...            1
Storage mode                      ...       InCore

XC Response fock operator R(S(x))                ... done   (      0.2 sec)
tr(F(y)S(x)) contribution to the Hessian         ... done   (      0.0 sec)
Transforming and finalizing RHSs                 ... done   (      0.0 sec)

----------------------------------------------
Solving the CP-SCF equations (RI)                ...
----------------------------------------------
     CP-SCF ITERATION   0: 
     CP-SCF ITERATION   1:      0.001309668989
     CP-SCF ITERATION   2:      0.000094708454
     CP-SCF ITERATION   3:      0.000004226051
     CP-SCF ITERATION   4:      0.000000095875
     CP-SCF ITERATION   5:      0.000000000916

                                                 ... done   (      1.7 sec)
Forming perturbed density Hessian contributions  ... done   (      0.0 sec)
Making the perturbed densities                   ... done   (      0.0 sec)
2nd integral derivative contribs (RI)            ... done   (      0.3 sec)
Exchange-correlation Hessian                     ... done   (      0.9 sec)
Dispersion correction in the Hessian             ... 
The revPBE functional is recognized
Active option DFTDOPT                   ...         5   



------------------- 
Dispersion Gradient 
------------------- 
   1  :   -0.000165720   -0.000029829   -0.000061079
   2  :    0.000168449    0.000058657   -0.000020465
   3  :   -0.000025148    0.000032144    0.000063619
   4  :    0.000022181   -0.000065397    0.000031217

  |G| =    0.000743905


The revPBE functional is recognized
Active option DFTDOPT                   ...         5   



------------------- 
Dispersion Gradient 
------------------- 
   1  :   -0.000168274   -0.000030104   -0.000061345
   2  :    0.000170364    0.000058213   -0.000020512
   3  :   -0.000025598    0.000032166    0.000063592
   4  :    0.000022979   -0.000064915    0.000031009

  |G| =    0.000749070


The revPBE functional is recognized
Active option DFTDOPT                   ...         5   



------------------- 
Dispersion Gradient 
------------------- 
   1  :   -0.000166678   -0.000030201   -0.000061167
   2  :    0.000169585    0.000059321   -0.000020654
   3  :   -0.000025401    0.000032116    0.000063549
   4  :    0.000022430   -0.000065134    0.000031161

  |G| =    0.000747397


The revPBE functional is recognized
Active option DFTDOPT                   ...         5   



------------------- 
Dispersion Gradient 
------------------- 
   1  :   -0.000167314   -0.000029735   -0.000061261
   2  :    0.000169215    0.000057528   -0.000020319
   3  :   -0.000025346    0.000032194    0.000063661
   4  :    0.000022724   -0.000065191    0.000031068

  |G| =    0.000745556


The revPBE functional is recognized
Active option DFTDOPT                   ...         5   



------------------- 
Dispersion Gradient 
------------------- 
   1  :   -0.000167228   -0.000030413   -0.000061548
   2  :    0.000169152    0.000058381   -0.000020555
   3  :   -0.000025108    0.000032319    0.000063629
   4  :    0.000022552   -0.000065134    0.000031038

  |G| =    0.000747058


The revPBE functional is recognized
Active option DFTDOPT                   ...         5   



------------------- 
Dispersion Gradient 
------------------- 
   1  :   -0.000166754   -0.000029517   -0.000060866
   2  :    0.000169657    0.000058490   -0.000020421
   3  :   -0.000025635    0.000031996    0.000063586
   4  :    0.000022607   -0.000065181    0.000031188

  |G| =    0.000745898


Dispersion correction Hessian from Numerical Differentiation: 
                  0          1          2          3          4          5    
      0       0.000255   0.000000   0.000000   0.000000   0.000064   0.000000
      1       0.000000   0.000000   0.000000   0.000000  -0.000047   0.000000
      2       0.000000   0.000000   0.000000   0.000000   0.000009   0.000000
      3       0.000000   0.000000   0.000000   0.000000   0.000037   0.000000
      4       0.000064  -0.000047   0.000009   0.000037   0.000179   0.000000
      5       0.000000   0.000000   0.000000   0.000000   0.000000   0.000000
      6       0.000000   0.000000   0.000000   0.000000   0.000000   0.000000
      7       0.000000   0.000000   0.000000   0.000000   0.000000   0.000000
      8      -0.000047  -0.000090  -0.000068  -0.000051  -0.000011  -0.000013
      9       0.000000   0.000000   0.000000   0.000000   0.000000   0.000000
     10       0.000000   0.000000   0.000000   0.000000   0.000000   0.000000
     11       0.000000   0.000000   0.000000   0.000000   0.000000   0.000000
                  6          7          8          9         10         11    
      0       0.000000   0.000000  -0.000047   0.000000   0.000000   0.000000
      1       0.000000   0.000000  -0.000090   0.000000   0.000000   0.000000
      2       0.000000   0.000000  -0.000068   0.000000   0.000000   0.000000
      3       0.000000   0.000000  -0.000051   0.000000   0.000000   0.000000
      4       0.000000   0.000000  -0.000011   0.000000   0.000000   0.000000
      5       0.000000   0.000000  -0.000013   0.000000   0.000000   0.000000
      6       0.000000   0.000000   0.000053   0.000000   0.000000   0.000000
      7       0.000000   0.000000   0.000032   0.000000   0.000000   0.000000
      8       0.000053   0.000032   0.000004   0.000000   0.000000   0.000000
      9       0.000000   0.000000   0.000000   0.000000   0.000000   0.000000
     10       0.000000   0.000000   0.000000   0.000000   0.000000   0.000000
     11       0.000000   0.000000   0.000000   0.000000   0.000000   0.000000

done   (      0.3 sec)
gCP correction in the Hessian                    ...  
-----------------
gCP hessian 
from Numerical Differentiation: 
-----------------
                  0          1          2          3          4          5    
      0       0.000281   0.000618   0.000623  -0.001056   0.000408   0.000085
      1       0.000618  -0.001704   0.001496   0.000408   0.000795  -0.000018
      2       0.000623   0.001496  -0.001102   0.000085  -0.000018   0.000877
      3      -0.001056   0.000408   0.000085   0.000317   0.000897   0.000048
      4       0.000408   0.000795  -0.000018   0.000897  -0.000047  -0.000587
      5       0.000085  -0.000018   0.000877   0.000048  -0.000587  -0.002795
      6       0.001470  -0.000673  -0.000865  -0.000663  -0.000156  -0.000392
      7      -0.000673   0.000660  -0.001531  -0.000156   0.000343  -0.000060
      8      -0.000865  -0.001531  -0.000118  -0.000392  -0.000060   0.000217
      9      -0.000695  -0.000353   0.000158   0.001402  -0.001148   0.000259
     10      -0.000353   0.000250   0.000052  -0.001148  -0.001090   0.000664
     11       0.000158   0.000052   0.000343   0.000259   0.000664   0.001700
                  6          7          8          9         10         11    
      0       0.001470  -0.000673  -0.000865  -0.000695  -0.000353   0.000158
      1      -0.000673   0.000660  -0.001531  -0.000353   0.000250   0.000052
      2      -0.000865  -0.001531  -0.000118   0.000158   0.000052   0.000343
      3      -0.000663  -0.000156  -0.000392   0.001402  -0.001148   0.000259
      4      -0.000156   0.000343  -0.000060  -0.001148  -0.001090   0.000664
      5      -0.000392  -0.000060   0.000217   0.000259   0.000664   0.001700
      6      -0.000761   0.000864   0.001271  -0.000046  -0.000034  -0.000014
      7       0.000864  -0.001000   0.001598  -0.000034  -0.000002  -0.000008
      8       0.001271   0.001598  -0.000113  -0.000014  -0.000008   0.000014
      9      -0.000046  -0.000034  -0.000014  -0.000661   0.001535  -0.000403
     10      -0.000034  -0.000002  -0.000008   0.001535   0.000843  -0.000709
     11      -0.000014  -0.000008   0.000014  -0.000403  -0.000709  -0.002057

done   (      0.0 sec)
Dipol derivatives                                ... done   (      0.1 sec)

-------
TIMINGS
-------

Total SCF Hessian time: 0 days 0 hours 0 min 5 sec 
                   F(y)            G[Q(x)]           CPSCF         Total
Table01         0.2  0.04         0.2  0.03         1.7  0.29         5.8 
Table01a        0.2  0.04,        0.2, 0.03,        1.7  0.29         5.8 
Table01b        0.2   3.9,        0.2,  3.3,        1.7  28.9         5.8 

Writing the Hessian file to the disk             ... done


Maximum memory used throughout the entire calculation: 131.6 MB

-----------------------
VIBRATIONAL FREQUENCIES
-----------------------

Scaling factor for frequencies =  1.000000000  (already applied!)

   0:         0.00 cm**-1
   1:         0.00 cm**-1
   2:         0.00 cm**-1
   3:         0.00 cm**-1
   4:         0.00 cm**-1
   5:         0.00 cm**-1
   6:       324.01 cm**-1
   7:       874.24 cm**-1
   8:      1257.61 cm**-1
   9:      1393.36 cm**-1
  10:      3571.00 cm**-1
  11:      3571.37 cm**-1


------------
NORMAL MODES
------------

These modes are the Cartesian displacements weighted by the diagonal matrix
M(i,i)=1/sqrt(m[i]) where m[i] is the mass of the displaced atom
Thus, these vectors are normalized but *not* orthogonal

                  0          1          2          3          4          5    
      0       0.000000   0.000000   0.000000   0.000000   0.000000   0.000000
      1       0.000000   0.000000   0.000000   0.000000   0.000000   0.000000
      2       0.000000   0.000000   0.000000   0.000000   0.000000   0.000000
      3       0.000000   0.000000   0.000000   0.000000   0.000000   0.000000
      4       0.000000   0.000000   0.000000   0.000000   0.000000   0.000000
      5       0.000000   0.000000   0.000000   0.000000   0.000000   0.000000
      6       0.000000   0.000000   0.000000   0.000000   0.000000   0.000000
      7       0.000000   0.000000   0.000000   0.000000   0.000000   0.000000
      8       0.000000   0.000000   0.000000   0.000000   0.000000   0.000000
      9       0.000000   0.000000   0.000000   0.000000   0.000000   0.000000
     10       0.000000   0.000000   0.000000   0.000000   0.000000   0.000000
     11       0.000000   0.000000   0.000000   0.000000   0.000000   0.000000
                  6          7          8          9         10         11    
      0      -0.007990  -0.645658   0.042930   0.014281   0.013232  -0.016286
      1       0.043149   0.131991  -0.002719   0.044969   0.024777  -0.027996
      2      -0.025747   0.043703  -0.035004   0.021274   0.032447  -0.034762
      3       0.010123   0.644783   0.041060  -0.014570   0.015784   0.016397
      4      -0.017973  -0.142402  -0.024671  -0.048179   0.042555   0.040036
      5      -0.046509  -0.013833   0.027941  -0.012046  -0.009961  -0.008197
      6      -0.062854   0.033772  -0.667728   0.683599  -0.211557   0.224956
      7      -0.534951   0.084071   0.201746  -0.135283  -0.396407   0.432945
      8       0.455290  -0.235740   0.100792  -0.109156  -0.507425   0.546430
      9       0.029009  -0.019875  -0.665367  -0.679005  -0.248987  -0.226730
     10       0.135350   0.081178   0.232996   0.186222  -0.672285  -0.624044
     11       0.691556  -0.238354   0.011314  -0.037309   0.150538   0.135405


-----------
IR SPECTRUM
-----------

 Mode    freq (cm**-1)   T**2         TX         TY         TZ
-------------------------------------------------------------------
   6:       324.01  177.807382  ( -0.371449  -4.385874  12.587038)
   7:       874.24    1.370077  (  0.032480   0.385077  -1.104870)
   8:      1257.61   88.394688  ( -9.222281   1.794353   0.352880)
   9:      1393.36    0.158807  (  0.013035   0.130878  -0.376175)
  10:      3571.00   32.189330  ( -3.835957  -3.943150  -1.387925)
  11:      3571.37    5.821465  (  0.082015  -0.638387   2.325339)

The first frequency considered to be a vibration is 6
The total number of vibrations considered is 6


--------------------------
THERMOCHEMISTRY AT 298.15K
--------------------------

Temperature         ... 298.15 K
Pressure            ... 1.00 atm
Total Mass          ... 34.01 AMU

Throughout the following assumptions are being made:
  (1) The electronic state is orbitally nondegenerate
  (2) There are no thermally accessible electronically excited states
  (3) Hindered rotations indicated by low frequency modes are not
      treated as such but are treated as vibrations and this may
      cause some error
  (4) All equations used are the standard statistical mechanics
      equations for an ideal gas
  (5) All vibrations are strictly harmonic

freq.     324.01  E(vib)   ...       0.25 
freq.     874.24  E(vib)   ...       0.04 
freq.    1257.61  E(vib)   ...       0.01 
freq.    1393.36  E(vib)   ...       0.00 
freq.    3571.00  E(vib)   ...       0.00 
freq.    3571.37  E(vib)   ...       0.00 

------------
INNER ENERGY
------------

The inner energy is: U= E(el) + E(ZPE) + E(vib) + E(rot) + E(trans)
    E(el)   - is the total energy from the electronic structure calculation
              = E(kin-el) + E(nuc-el) + E(el-el) + E(nuc-nuc)
    E(ZPE)  - the the zero temperature vibrational energy from the frequency calculation
    E(vib)  - the the finite temperature correction to E(ZPE) due to population
              of excited vibrational states
    E(rot)  - is the rotational thermal energy
    E(trans)- is the translational thermal energy

Summary of contributions to the inner energy U:
Electronic energy                ...   -151.36520543 Eh
Zero point energy                ...      0.02504067 Eh      15.71 kcal/mol
Thermal vibrational correction   ...      0.00047145 Eh       0.30 kcal/mol
Thermal rotational correction    ...      0.00141627 Eh       0.89 kcal/mol
Thermal translational correction ...      0.00141627 Eh       0.89 kcal/mol
-----------------------------------------------------------------------
Total thermal energy                   -151.33686077 Eh


Summary of corrections to the electronic energy:
(perhaps to be used in another calculation)
Total thermal correction                  0.00330399 Eh       2.07 kcal/mol
Non-thermal (ZPE) correction              0.02504067 Eh      15.71 kcal/mol
-----------------------------------------------------------------------
Total correction                          0.02834466 Eh      17.79 kcal/mol


--------
ENTHALPY
--------

The enthalpy is H = U + kB*T
                kB is Boltzmann's constant
Total free energy                 ...   -151.33686077 Eh 
Thermal Enthalpy correction       ...      0.00094421 Eh       0.59 kcal/mol
-----------------------------------------------------------------------
Total Enthalpy                    ...   -151.33591657 Eh


Note: Only C1 symmetry has been detected, increase convergence thresholds 
      if your molecule has a higher symmetry. Symmetry factor of 1.0 is   
      used for the rotational entropy correction. 
 

Note: Rotational entropy computed according to Herzberg 
Infrared and Raman Spectra, Chapter V,1, Van Nostrand Reinhold, 1945 
Point Group:  C1, Symmetry Number:   1  
Rotational constants in cm-1:     9.676590     0.859441     0.825512 

Vibrational entropy computed according to the QRRHO of S. Grimme
Chem.Eur.J. 2012 18 9955


-------
ENTROPY
-------

The entropy contributions are T*S = T*(S(el)+S(vib)+S(rot)+S(trans))
     S(el)   - electronic entropy
     S(vib)  - vibrational entropy
     S(rot)  - rotational entropy
     S(trans)- translational entropy
The entropies will be listed as mutliplied by the temperature to get
units of energy

Electronic entropy                ...      0.00000000 Eh      0.00 kcal/mol
Vibrational entropy               ...      0.00071235 Eh      0.45 kcal/mol
Rotational entropy                ...      0.00860134 Eh      5.40 kcal/mol
Translational entropy             ...      0.01734394 Eh     10.88 kcal/mol
-----------------------------------------------------------------------
Final entropy term                ...      0.02665763 Eh     16.73 kcal/mol

In case the symmetry of your molecule has not been determined correctly
or in case you have a reason to use a different symmetry number we print 
out the resulting rotational entropy values for sn=1,12 :
 --------------------------------------------------------
|  sn= 1 | S(rot)=       0.00860134 Eh      5.40 kcal/mol|
|  sn= 2 | S(rot)=       0.00794688 Eh      4.99 kcal/mol|
|  sn= 3 | S(rot)=       0.00756405 Eh      4.75 kcal/mol|
|  sn= 4 | S(rot)=       0.00729242 Eh      4.58 kcal/mol|
|  sn= 5 | S(rot)=       0.00708173 Eh      4.44 kcal/mol|
|  sn= 6 | S(rot)=       0.00690959 Eh      4.34 kcal/mol|
|  sn= 7 | S(rot)=       0.00676404 Eh      4.24 kcal/mol|
|  sn= 8 | S(rot)=       0.00663797 Eh      4.17 kcal/mol|
|  sn= 9 | S(rot)=       0.00652676 Eh      4.10 kcal/mol|
|  sn=10 | S(rot)=       0.00642728 Eh      4.03 kcal/mol|
|  sn=11 | S(rot)=       0.00633729 Eh      3.98 kcal/mol|
|  sn=12 | S(rot)=       0.00625513 Eh      3.93 kcal/mol|
 --------------------------------------------------------


-------------------
GIBBS FREE ENERGY
-------------------

The Gibbs free energy is G = H - T*S

Total enthalpy                    ...   -151.33591657 Eh 
Total entropy correction          ...     -0.02665763 Eh    -16.73 kcal/mol
-----------------------------------------------------------------------
Final Gibbs free energy         ...   -151.36257419 Eh

For completeness - the Gibbs free energy minus the electronic energy
G-E(el)                           ...      0.00263124 Eh      1.65 kcal/mol


Timings for individual modules:

Sum of individual times         ...       57.889 sec (=   0.965 min)
GTO integral calculation        ...        8.251 sec (=   0.138 min)  14.3 %
SCF iterations                  ...       32.332 sec (=   0.539 min)  55.9 %
SCF Gradient evaluation         ...       10.773 sec (=   0.180 min)  18.6 %
Geometry relaxation             ...        0.225 sec (=   0.004 min)   0.4 %
Analytical frequency calculation...        6.307 sec (=   0.105 min)  10.9 %
                             ****ORCA TERMINATED NORMALLY****
TOTAL RUN TIME: 0 days 0 hours 0 minutes 59 seconds 378 msec
