
                                 *****************
                                 * O   R   C   A *
                                 *****************

           --- An Ab Initio, DFT and Semiempirical electronic structure package ---

                  #######################################################
                  #                        -***-                        #
                  #          Department of theory and spectroscopy      #
                  #               Directorship: Frank Neese             #
                  #        Max Planck Institute fuer Kohlenforschung    #
                  #                Kaiser Wilhelm Platz 1               #
                  #                 D-45470 Muelheim/Ruhr               #
                  #                      Germany                        #
                  #                                                     #
                  #                  All rights reserved                #
                  #                        -***-                        #
                  #######################################################


                         Program Version 4.2.1 -  RELEASE  -


 With contributions from (in alphabetic order):
   Daniel Aravena         : Magnetic Suceptibility
   Michael Atanasov       : Ab Initio Ligand Field Theory (pilot matlab implementation)
   Alexander A. Auer      : GIAO ZORA, VPT2
   Ute Becker             : Parallelization
   Giovanni Bistoni       : ED, misc. LED, open-shell LED, HFLD
   Martin Brehm           : Molecular dynamics
   Dmytro Bykov           : SCF Hessian
   Vijay G. Chilkuri      : MRCI spin determinant printing, contributions to CSF-ICE
   Dipayan Datta          : RHF DLPNO-CCSD density
   Achintya Kumar Dutta   : EOM-CC, STEOM-CC
   Dmitry Ganyushin       : Spin-Orbit,Spin-Spin,Magnetic field MRCI
   Miquel Garcia          : C-PCM Hessian, Gaussian charge scheme
   Yang Guo               : DLPNO-NEVPT2, CIM, IAO-localization
   Andreas Hansen         : Spin unrestricted coupled pair/coupled cluster methods
   Benjamin Helmich-Paris : CASSCF linear response (MC-RPA)
   Lee Huntington         : MR-EOM, pCC
   Robert Izsak           : Overlap fitted RIJCOSX, COSX-SCS-MP3, EOM
   Christian Kollmar      : KDIIS, OOCD, Brueckner-CCSD(T), CCSD density
   Simone Kossmann        : Meta GGA functionals, TD-DFT gradient, OOMP2, MP2 Hessian
   Martin Krupicka        : AUTO-CI
   Lucas Lang             : DCDCAS
   Dagmar Lenk            : GEPOL surface, SMD
   Dimitrios Liakos       : Extrapolation schemes; Compound Job, initial MDCI parallelization
   Dimitrios Manganas     : Further ROCIS development; embedding schemes
   Dimitrios Pantazis     : SARC Basis sets
   Taras Petrenko         : DFT Hessian,TD-DFT gradient, ASA, ECA, R-Raman, ABS, FL, XAS/XES, NRVS
   Peter Pinski           : DLPNO-MP2, DLPNO-MP2 Gradient
   Christoph Reimann      : Effective Core Potentials
   Marius Retegan         : Local ZFS, SOC
   Christoph Riplinger    : Optimizer, TS searches, QM/MM, DLPNO-CCSD(T), (RO)-DLPNO pert. Triples
   Tobias Risthaus        : Range-separated hybrids, TD-DFT gradient, RPA, STAB
   Michael Roemelt        : Original ROCIS implementation
   Masaaki Saitow         : Open-shell DLPNO-CCSD energy and density
   Barbara Sandhoefer     : DKH picture change effects
   Avijit Sen             : IP-ROCIS
   Kantharuban Sivalingam : CASSCF convergence, NEVPT2, FIC-MRCI
   Bernardo de Souza      : ESD, SOC TD-DFT
   Georgi Stoychev        : AutoAux, RI-MP2 NMR
   Willem Van den Heuvel  : Paramagnetic NMR
   Boris Wezisla          : Elementary symmetry handling
   Frank Wennmohs         : Technical directorship


 We gratefully acknowledge several colleagues who have allowed us to
 interface, adapt or use parts of their codes:
   Stefan Grimme, W. Hujo, H. Kruse,             : VdW corrections, initial TS optimization,
                  C. Bannwarth                     DFT functionals, gCP, sTDA/sTD-DF
   Ed Valeev, F. Pavosevic, A. Kumar             : LibInt (2-el integral package), F12 methods
   Garnet Chan, S. Sharma, J. Yang, R. Olivares  : DMRG
   Ulf Ekstrom                                   : XCFun DFT Library
   Mihaly Kallay                                 : mrcc  (arbitrary order and MRCC methods)
   Andreas Klamt, Michael Diedenhofen            : otool_cosmo (COSMO solvation model)
   Jiri Pittner, Ondrej Demel                    : Mk-CCSD
   Frank Weinhold                                : gennbo (NPA and NBO analysis)
   Christopher J. Cramer and Donald G. Truhlar   : smd solvation model
   Lars Goerigk                                  : TD-DFT with DH, B97 family of functionals
   V. Asgeirsson, H. Jonsson                     : NEB implementation
   FAccTs GmbH                                   : IRC, NEB, NEB-TS, Multilevel, MM, QM/MM, CI optimization
   S Lehtola, MJT Oliveira, MAL Marques          : LibXC Library


 Your calculation uses the libint2 library for the computation of 2-el integrals
 For citations please refer to: http://libint.valeyev.net

 Your ORCA version has been built with support for libXC version: 4.2.3
 For citations please refer to: https://tddft.org/programs/libxc/

 This ORCA versions uses:
   CBLAS   interface :  Fast vector & matrix operations
   LAPACKE interface :  Fast linear algebra routines
   SCALAPACK package :  Parallel linear algebra routines




***************************************
The coordinates will be read from file: init.xyz
***************************************


Your calculation utilizes the geometrical counterpoise correction gCP
Please cite in your paper:
H.Kruse, S. Grimme J.Chem.Phys., 136, (2012), 154101 
   

Your calculation utilizes the atom-pairwise dispersion correction
based on tight binding partial charges (D4)
Cite in your paper:
E.Caldeweyher, C.Bannwarth, S.Grimme, J.Chem.Phys., (2017), 147, 034112.
E.Caldeweyher, S.Ehlert, A.Hansen, H.Neugebauer, S.Grimme, J.Chem.Phys., (2018), in progress.
   

----- Orbital basis set information -----
Your calculation utilizes the basis: def2-SVP
   F. Weigend and R. Ahlrichs, Phys. Chem. Chem. Phys. 7, 3297 (2005).

----- AuxJ basis set information -----
Your calculation utilizes the auxiliary basis: def2/J
   F. Weigend, Phys. Chem. Chem. Phys. 8, 1057 (2006).

================================================================================
                                        WARNINGS
                       Please study these warnings very carefully!
================================================================================


WARNING: Geometry Optimization
  ===> : Switching off AutoStart
         For restart on a previous wavefunction, please use MOREAD

INFO   : the flag for use of LIBINT has been found!

================================================================================
                                       INPUT FILE
================================================================================
NAME = opt.inp
|  1> ! revPBE D4 gCP(DFT/TZ) def2-SVP Opt Freq TightOpt TightSCF Grid4 FinalGrid5 LargePrint
|  2> 
|  3> %pal
|  4>  nprocs 8
|  5> end
|  6> 
|  7> *xyzfile 0 1 init.xyz
|  8> 
|  9>                          ****END OF INPUT****
================================================================================

                       *****************************
                       * Geometry Optimization Run *
                       *****************************

Geometry optimization settings:
Update method            Update   .... BFGS
Choice of coordinates    CoordSys .... Z-matrix Internals
Initial Hessian          InHess   .... Almoef's Model

Convergence Tolerances:
Energy Change            TolE     ....  1.0000e-06 Eh
Max. Gradient            TolMAXG  ....  1.0000e-04 Eh/bohr
RMS Gradient             TolRMSG  ....  3.0000e-05 Eh/bohr
Max. Displacement        TolMAXD  ....  1.0000e-03 bohr
RMS Displacement         TolRMSD  ....  6.0000e-04 bohr
Strict Convergence                ....  False
------------------------------------------------------------------------------
                        ORCA OPTIMIZATION COORDINATE SETUP
------------------------------------------------------------------------------

The optimization will be done in new redundant internal coordinates
Making redundant internal coordinates   ...  (new redundants) done
Evaluating the initial hessian          ...  (Almloef) done
Evaluating the coordinates              ...  done
Calculating the B-matrix                .... done
Calculating the G-matrix                .... done
Diagonalizing the G-matrix              .... done
The first mode is                       ....    3
The number of degrees of freedom        ....   12

    -----------------------------------------------------------------
                    Redundant Internal Coordinates


    -----------------------------------------------------------------
         Definition                    Initial Value    Approx d2E/dq
    -----------------------------------------------------------------
      1. B(O   1,C   0)                  1.3983         0.542877   
      2. B(H   2,C   0)                  1.1116         0.332631   
      3. B(H   3,C   0)                  1.1116         0.332624   
      4. B(H   4,C   0)                  1.1094         0.335301   
      5. B(H   5,O   1)                  0.9923         0.461727   
      6. A(O   1,C   0,H   3)          110.3159         0.338463   
      7. A(O   1,C   0,H   2)          110.3155         0.338464   
      8. A(O   1,C   0,H   4)          108.8894         0.338916   
      9. A(H   2,C   0,H   4)          108.1943         0.284071   
     10. A(H   3,C   0,H   4)          108.1939         0.284070   
     11. A(H   2,C   0,H   3)          110.8581         0.283717   
     12. A(C   0,O   1,H   5)          105.9662         0.354554   
     13. D(H   5,O   1,C   0,H   3)    -61.4072         0.023458   
     14. D(H   5,O   1,C   0,H   4)   -179.9998         0.023458   
     15. D(H   5,O   1,C   0,H   2)     61.4075         0.023458   
    -----------------------------------------------------------------

Number of atoms                         .... 6
Number of degrees of freedom            .... 15

         *************************************************************
         *                GEOMETRY OPTIMIZATION CYCLE   1            *
         *************************************************************
---------------------------------
CARTESIAN COORDINATES (ANGSTROEM)
---------------------------------
  C     -7.832260    2.322660    0.005820
  O     -6.456590    2.571920   -0.017080
  H     -8.345940    2.920710   -0.777840
  H     -8.248540    2.547520    1.011710
  H     -8.006210    1.248180   -0.208780
  H     -6.351110    3.538980    0.178850

----------------------------
CARTESIAN COORDINATES (A.U.)
----------------------------
  NO LB      ZA    FRAG     MASS         X           Y           Z
   0 C     6.0000    0    12.011  -14.800826    4.389191    0.010998
   1 O     8.0000    0    15.999  -12.201187    4.860224   -0.032277
   2 H     1.0000    0     1.008  -15.771541    5.519342   -1.469905
   3 H     1.0000    0     1.008  -15.587482    4.814115    1.911855
   4 H     1.0000    0     1.008  -15.129544    2.358718   -0.394537
   5 H     1.0000    0     1.008  -12.001859    6.687703    0.337978

--------------------------------
INTERNAL COORDINATES (ANGSTROEM)
--------------------------------
 C      0   0   0     0.000000000000     0.00000000     0.00000000
 O      1   0   0     1.398257095995     0.00000000     0.00000000
 H      1   2   0     1.111599721348   110.31554794     0.00000000
 H      1   2   3     1.111605033319   110.31590948   237.18530859
 H      1   2   3     1.109422837740   108.88941038   118.59275225
 H      2   1   3     0.992330408130   105.96616592    61.40748672

---------------------------
INTERNAL COORDINATES (A.U.)
---------------------------
 C      0   0   0     0.000000000000     0.00000000     0.00000000
 O      1   0   0     2.642322976242     0.00000000     0.00000000
 H      1   2   0     2.100619043890   110.31554794     0.00000000
 H      1   2   3     2.100629082061   110.31590948   237.18530859
 H      1   2   3     2.096505330047   108.88941038   118.59275225
 H      2   1   3     1.875232705729   105.96616592    61.40748672

---------------------
BASIS SET INFORMATION
---------------------
There are 3 groups of distinct atoms

 Group   1 Type C   : 7s4p1d contracted to 3s2p1d pattern {511/31/1}
 Group   2 Type O   : 7s4p1d contracted to 3s2p1d pattern {511/31/1}
 Group   3 Type H   : 4s1p contracted to 2s1p pattern {31/1}

Atom   0C    basis set group =>   1
Atom   1O    basis set group =>   2
Atom   2H    basis set group =>   3
Atom   3H    basis set group =>   3
Atom   4H    basis set group =>   3
Atom   5H    basis set group =>   3

-------------------------
BASIS SET IN INPUT FORMAT
-------------------------

 # Basis set for element : H 
 NewGTO H 
 S 3 
   1      13.0107010000      0.0334854848
   2       1.9622572000      0.2347218709
   3       0.4445379600      0.8137702853
 S 1 
   1       0.1219496200      1.0000000000
 P 1 
   1       0.8000000000      1.0000000000
  end;

 # Basis set for element : C 
 NewGTO C 
 S 5 
   1    1238.4016938000      0.0055173650
   2     186.2900499200      0.0410888285
   3      42.2511763460      0.1822538213
   4      11.6765579320      0.4682845944
   5       3.5930506482      0.4457581734
 S 1 
   1       0.4024514736      1.0000000000
 S 1 
   1       0.1309018267      1.0000000000
 P 3 
   1       9.4680970621      0.0568883320
   2       2.0103545142      0.3129405934
   3       0.5477100471      0.7606501651
 P 1 
   1       0.1526861379      1.0000000000
 D 1 
   1       0.8000000000      1.0000000000
  end;

 # Basis set for element : O 
 NewGTO O 
 S 5 
   1    2266.1767785000     -0.0053893504
   2     340.8701019100     -0.0402347214
   3      77.3631351670     -0.1800818421
   4      21.4796449400     -0.4682885766
   5       6.6589433124     -0.4469261716
 S 1 
   1       0.8097597567      1.0000000000
 S 1 
   1       0.2553077223      1.0000000000
 P 3 
   1      17.7215043170      0.0626302488
   2       3.8635505440      0.3333113849
   3       1.0480920883      0.7414863830
 P 1 
   1       0.2764154441      1.0000000000
 D 1 
   1       1.2000000000      1.0000000000
  end;

---------------------------------
AUXILIARY/J BASIS SET INFORMATION
---------------------------------
There are 3 groups of distinct atoms

 Group   1 Type C   : 12s5p4d2f1g contracted to 6s4p3d1f1g pattern {711111/2111/211/2/1}
 Group   2 Type O   : 12s5p4d2f1g contracted to 6s4p3d1f1g pattern {711111/2111/211/2/1}
 Group   3 Type H   : 5s2p1d contracted to 3s1p1d pattern {311/2/1}

Atom   0C    basis set group =>   1
Atom   1O    basis set group =>   2
Atom   2H    basis set group =>   3
Atom   3H    basis set group =>   3
Atom   4H    basis set group =>   3
Atom   5H    basis set group =>   3

-------------------------------------
AUXILIARY/J BASIS SET IN INPUT FORMAT
-------------------------------------

 # Auxiliary/J basis set for element : H 
 NewAuxJGTO H 
 S 3 
   1      15.6752927000      0.1007184237
   2       3.6063578000      0.3404257499
   3       1.2080016000      0.6491996172
 S 1 
   1       0.4726794000      1.0000000000
 S 1 
   1       0.2018100000      1.0000000000
 P 2 
   1       2.0281365000      0.5596620919
   2       0.5358730000      0.5596620919
 D 1 
   1       2.2165124000      1.0000000000
  end;

 # Auxiliary/J basis set for element : C 
 NewAuxJGTO C 
 S 7 
   1    1861.0916331000      0.0134602335
   2     642.9939764000      0.0299160374
   3     235.1105725000      0.1008649584
   4      90.7028894000      0.2370970548
   5      36.7794552000      0.3924037254
   6      15.6046273000      0.3195862154
   7       6.8907294000      0.0530104441
 S 1 
   1       3.1478850000     -1.0000000000
 S 1 
   1       1.4777287000      1.0000000000
 S 1 
   1       0.7076466000      1.0000000000
 S 1 
   1       0.3430122000      1.0000000000
 S 1 
   1       0.1669453000      1.0000000000
 P 2 
   1      13.5472892000     -0.6769313712
   2       5.4669419000     -0.3779500978
 P 1 
   1       2.1751721000      1.0000000000
 P 1 
   1       0.8582194000      1.0000000000
 P 1 
   1       0.3376720000      1.0000000000
 D 2 
   1       5.9287253000     -0.3533329857
   2       1.9809209000     -0.7456525731
 D 1 
   1       0.8055417000     -1.0000000000
 D 1 
   1       0.3531244000     -1.0000000000
 F 2 
   1       1.6755626000      0.6311076882
   2       0.5997536000      0.4968166032
 G 1 
   1       1.0024600000     -1.0000000000
  end;

 # Auxiliary/J basis set for element : O 
 NewAuxJGTO O 
 S 7 
   1    2876.8216605000      0.0168151159
   2    1004.7443032000      0.0340137548
   3     369.7579954000      0.1194951309
   4     142.9442404000      0.2664627624
   5      57.8366425000      0.4202764046
   6      24.3864983000      0.2765077335
   7      10.6622662000      0.0057008815
 S 1 
   1       4.8070437000     -1.0000000000
 S 1 
   1       2.2210770000      1.0000000000
 S 1 
   1       1.0447795000      1.0000000000
 S 1 
   1       0.4968425000      1.0000000000
 S 1 
   1       0.2371384000      1.0000000000
 P 2 
   1      64.2613382000     -0.2731534179
   2      16.3006076000     -0.8168011598
 P 1 
   1       4.3550542000      1.0000000000
 P 1 
   1       1.2019554000      1.0000000000
 P 1 
   1       0.3354196000      1.0000000000
 D 2 
   1       9.2146611000     -0.4661230638
   2       2.8435251000     -0.6600908911
 D 1 
   1       0.9955759000     -1.0000000000
 D 1 
   1       0.3649441000     -1.0000000000
 F 2 
   1       2.6420115000      0.5931563945
   2       0.7345613000      0.5931563945
 G 1 
   1       1.3931000000     -1.0000000000
  end;



           ************************************************************
           *        Program running with 8 parallel MPI-processes     *
           *              working on a common directory               *
           ************************************************************
------------------------------------------------------------------------------
                           ORCA GTO INTEGRAL CALCULATION
                           -- RI-GTO INTEGRALS CHOSEN --
------------------------------------------------------------------------------

                         BASIS SET STATISTICS AND STARTUP INFO

Gaussian basis set:
 # of primitive gaussian shells          ...   44
 # of primitive gaussian functions       ...   76
 # of contracted shells                  ...   24
 # of contracted basis functions         ...   48
 Highest angular momentum                ...    2
 Maximum contraction depth               ...    5
Auxiliary gaussian basis set:
 # of primitive gaussian shells          ...   80
 # of primitive gaussian functions       ...  204
 # of contracted shells                  ...   50
 # of contracted aux-basis functions     ...  142
 Highest angular momentum                ...    4
 Maximum contraction depth               ...    7
Ratio of auxiliary to basis functions    ...  2.96
Integral package used                  ... LIBINT
 One Electron integrals                  ... done
 Ordering auxiliary basis shells         ... done
 Integral threshhold             Thresh  ...  2.500e-11
 Primitive cut-off               TCut    ...  2.500e-12
 Pre-screening matrix                    ... done
 Shell pair data                         ... 
 Ordering of the shell pairs             ... done (   0.000 sec) 300 of 300 pairs
 Determination of significant pairs      ... done (   0.000 sec)
 Creation of shell pair data             ... done (   0.000 sec)
 Storage of shell pair data              ... done (   0.004 sec)
 Shell pair data done in (   0.004 sec)
 Computing two index integrals           ... done
 Cholesky decomposition of the V-matrix  ... done


Timings:
 Total evaluation time                   ...   0.151 sec (  0.003 min)
 One electron matrix time                ...   0.005 sec (  0.000 min) =  3.4%
 Schwartz matrix evaluation time         ...   0.103 sec (  0.002 min) = 68.3%
 Two index repulsion integral time       ...   0.001 sec (  0.000 min) =  0.9%
 Cholesky decomposition of V             ...   0.014 sec (  0.000 min) =  9.5%
 Three index repulsion integral time     ...   0.000 sec (  0.000 min) =  0.0%



           ************************************************************
           *        Program running with 8 parallel MPI-processes     *
           *              working on a common directory               *
           ************************************************************
-------------------------------------------------------------------------------
                                 ORCA SCF
-------------------------------------------------------------------------------

------------
SCF SETTINGS
------------
Hamiltonian:
 Density Functional     Method          .... DFT(GTOs)
 Exchange Functional    Exchange        .... PBE
   PBE kappa parameter   XKappa         ....  1.245000
   PBE mue parameter    XMuePBE         ....  0.219520
 Correlation Functional Correlation     .... PBE
   PBE beta parameter  CBetaPBE         ....  0.066725
 LDA part of GGA corr.  LDAOpt          .... PW91-LDA
 Gradients option       PostSCFGGA      .... off
   Density functional embedding theory  .... OFF
   NL short-range parameter             ....  3.700000
 RI-approximation to the Coulomb term is turned on
   Number of auxiliary basis functions  .... 142


General Settings:
 Integral files         IntName         .... opt
 Hartree-Fock type      HFTyp           .... RHF
 Total Charge           Charge          ....    0
 Multiplicity           Mult            ....    1
 Number of Electrons    NEL             ....   18
 Basis Dimension        Dim             ....   48
 Nuclear Repulsion      ENuc            ....     40.3454007208 Eh

Convergence Acceleration:
 DIIS                   CNVDIIS         .... on
   Start iteration      DIISMaxIt       ....    12
   Startup error        DIISStart       ....  0.200000
   # of expansion vecs  DIISMaxEq       ....     5
   Bias factor          DIISBfac        ....   1.050
   Max. coefficient     DIISMaxC        ....  10.000
 Newton-Raphson         CNVNR           .... off
 SOSCF                  CNVSOSCF        .... on
   Start iteration      SOSCFMaxIt      ....   150
   Startup grad/error   SOSCFStart      ....  0.003300
 Level Shifting         CNVShift        .... on
   Level shift para.    LevelShift      ....    0.2500
   Turn off err/grad.   ShiftErr        ....    0.0010
 Zerner damping         CNVZerner       .... off
 Static damping         CNVDamp         .... on
   Fraction old density DampFac         ....    0.7000
   Max. Damping (<1)    DampMax         ....    0.9800
   Min. Damping (>=0)   DampMin         ....    0.0000
   Turn off err/grad.   DampErr         ....    0.1000
 Fernandez-Rico         CNVRico         .... off

SCF Procedure:
 Maximum # iterations   MaxIter         ....   125
 SCF integral mode      SCFMode         .... Direct
   Integral package                     .... LIBINT
 Reset frequency        DirectResetFreq ....    20
 Integral Threshold     Thresh          ....  2.500e-11 Eh
 Primitive CutOff       TCut            ....  2.500e-12 Eh

Convergence Tolerance:
 Convergence Check Mode ConvCheckMode   .... Total+1el-Energy
 Convergence forced     ConvForced      .... 0
 Energy Change          TolE            ....  1.000e-08 Eh
 1-El. energy change                    ....  1.000e-05 Eh
 Orbital Gradient       TolG            ....  1.000e-05
 Orbital Rotation angle TolX            ....  1.000e-05
 DIIS Error             TolErr          ....  5.000e-07


Diagonalization of the overlap matrix:
Smallest eigenvalue                        ... 1.167e-02
Time for diagonalization                   ...    0.018 sec
Threshold for overlap eigenvalues          ... 1.000e-08
Number of eigenvalues below threshold      ... 0
Time for construction of square roots      ...    0.001 sec
Total time needed                          ...    0.019 sec

-------------------
DFT GRID GENERATION
-------------------

General Integration Accuracy     IntAcc      ...  4.670
Radial Grid Type                 RadialGrid  ... Gauss-Chebyshev
Angular Grid (max. acc.)         AngularGrid ... Lebedev-302
Angular grid pruning method      GridPruning ... 3 (G Style)
Weight generation scheme         WeightScheme... Becke
Basis function cutoff            BFCut       ...    1.0000e-11
Integration weight cutoff        WCut        ...    1.0000e-14
Grids for H and He will be reduced by one unit

# of grid points (after initial pruning)     ...  26000 (   0.0 sec)
# of grid points (after weights+screening)   ...  25158 (   0.0 sec)
nearest neighbour list constructed           ...    0.0 sec
Grid point re-assignment to atoms done       ...    0.0 sec
Grid point division into batches done        ...    0.1 sec
Reduced shell lists constructed in    0.1 sec

Total number of grid points                  ...    25158
Total number of batches                      ...      397
Average number of points per batch           ...       63
Average number of grid points per atom       ...     4193
Average number of shells per batch           ...    20.02 (83.42%)
Average number of basis functions per batch  ...    40.18 (83.70%)
Average number of large shells per batch     ...    19.51 (97.45%)
Average number of large basis fcns per batch ...    39.08 (97.27%)
Maximum spatial batch extension              ...  16.29, 11.87, 16.29 au
Average spatial batch extension              ...   0.32,  0.27,  0.34 au

Time for grid setup =    0.128 sec

------------------------------
INITIAL GUESS: MODEL POTENTIAL
------------------------------
Loading Hartree-Fock densities                     ... done
Calculating cut-offs                               ... done
Setting up the integral package                    ... done
Initializing the effective Hamiltonian             ... done
Starting the Coulomb interaction                   ... done (   0.0 sec)
Reading the grid                                   ... done
Mapping shells                                     ... done
Starting the XC term evaluation                    ... done (   0.0 sec)
  promolecular density results
     # of electrons  =     17.998071684
     EX              =    -14.517873023
     EC              =     -0.574489969
     EX+EC           =    -15.092362992
Transforming the Hamiltonian                       ... done (   0.0 sec)
Diagonalizing the Hamiltonian                      ... done (   0.0 sec)
Back transforming the eigenvectors                 ... done (   0.0 sec)
Now organizing SCF variables                       ... done
                      ------------------
                      INITIAL GUESS DONE (   0.2 sec)
                      ------------------
----------------------
INITIAL GUESS ORBITALS
----------------------
                      0         1         2         3         4         5   
                 -18.95763 -10.07466  -1.05065  -0.72031  -0.56811  -0.50391
                   2.00000   2.00000   2.00000   2.00000   2.00000   2.00000
                  --------  --------  --------  --------  --------  --------
  0C   1s        -0.000093 -0.987758  0.097770  0.235155  0.046323 -0.000001
  0C   2s         0.000157 -0.050791 -0.194807 -0.500351 -0.097714 -0.000000
  0C   3s        -0.014259  0.030909 -0.000255 -0.084138 -0.049514  0.000005
  0C   1pz       -0.000015 -0.000008  0.000572  0.004717 -0.043126  0.421788
  0C   1px       -0.000343  0.000800 -0.116342  0.052177  0.289695  0.022980
  0C   1py       -0.000163  0.000172 -0.027624  0.036232 -0.131191 -0.087930
  0C   2pz        0.000272  0.000117 -0.001236  0.001092 -0.017358  0.154926
  0C   2px       -0.004952 -0.003717 -0.012710  0.025001  0.084394  0.008438
  0C   2py        0.000013 -0.000411 -0.009240  0.011741 -0.061190 -0.032287
  0C   1dz2      -0.000502 -0.000246  0.010341  0.000096 -0.011616  0.003594
  0C   1dxz      -0.000048 -0.000052 -0.000152  0.000861 -0.003600  0.002752
  0C   1dyz      -0.000013  0.000022 -0.000117  0.000115  0.000977  0.010206
  0C   1dx2y2     0.000874  0.000339 -0.014935 -0.001689  0.017735  0.002364
  0C   1dxy       0.000226 -0.000048 -0.009306  0.003638 -0.007279  0.000029
  1O   1s         0.988701  0.000098 -0.277661  0.089578  0.043623 -0.000007
  1O   2s        -0.041326 -0.000640 -0.573830  0.201311  0.100317 -0.000014
  1O   3s         0.024581  0.003712 -0.290494  0.094819  0.097632 -0.000014
  1O   1pz       -0.000337  0.000002 -0.016452  0.020837 -0.076924  0.314442
  1O   1px        0.001335 -0.000622  0.088790  0.181923 -0.194233  0.017071
  1O   1py       -0.001267 -0.000154 -0.055712  0.147399 -0.419569 -0.065560
  1O   2pz        0.000046  0.000363 -0.000677  0.004625 -0.033987  0.186390
  1O   2px       -0.005480 -0.004245  0.029801  0.095534 -0.079790  0.010121
  1O   2py       -0.001207  0.000633  0.004531  0.047120 -0.183800 -0.038859
  1O   1dz2       0.000377 -0.000992  0.005617  0.002417  0.000859  0.002366
  1O   1dxz      -0.000050 -0.000078  0.000464  0.000447  0.001207 -0.014070
  1O   1dyz      -0.000306  0.000137 -0.001388  0.001350 -0.002672  0.002575
  1O   1dx2y2     0.000811  0.001006 -0.003076 -0.010013  0.008737 -0.000173
  1O   1dxy      -0.000216  0.000343 -0.001198 -0.001494  0.007517  0.003104
  2H   1s         0.001070  0.003770 -0.028411 -0.167193 -0.151835 -0.252380
  2H   2s         0.001674 -0.007167 -0.006933 -0.023228 -0.019264 -0.048849
  2H   1pz        0.000068  0.001874 -0.004200 -0.014328 -0.010994 -0.004029
  2H   1px        0.000455  0.001356 -0.003424 -0.007418 -0.001783 -0.010208
  2H   1py       -0.000108 -0.001501  0.003305  0.012191  0.004633  0.009318
  3H   1s         0.001070  0.003770 -0.028409 -0.167190 -0.151832  0.252378
  3H   2s         0.001674 -0.007167 -0.006934 -0.023231 -0.019261  0.048846
  3H   1pz       -0.000152 -0.002447  0.005501  0.018686  0.012049 -0.008446
  3H   1px        0.000443  0.001121 -0.002896 -0.005621 -0.000530  0.009530
  3H   1py       -0.000062 -0.000600  0.001282  0.005305 -0.000174 -0.006715
  4H   1s         0.001443  0.003962 -0.028576 -0.182892  0.003949 -0.000022
  4H   2s         0.002155 -0.006792 -0.008529 -0.025773 -0.008415 -0.000001
  4H   1pz        0.000044  0.000544 -0.001022 -0.004354 -0.000935  0.011706
  4H   1px        0.000314  0.000547 -0.001284 -0.001591  0.006487  0.000637
  4H   1py        0.000294  0.002753 -0.005236 -0.021289 -0.002791 -0.002442
  5H   1s         0.001301 -0.001443 -0.151565  0.149455 -0.258987 -0.000002
  5H   2s        -0.001301 -0.001144  0.003779  0.006414 -0.044503 -0.000003
  5H   1pz       -0.000577  0.000017  0.005276 -0.004410  0.005613  0.011148
  5H   1px        0.000076  0.000973  0.006552  0.002767  0.002227  0.000605
  5H   1py       -0.002749  0.000334  0.027009 -0.020423  0.027494 -0.002324
                      6         7         8         9        10        11   
                  -0.50067  -0.40959  -0.35591  -0.02217   0.02868   0.05213
                   2.00000   2.00000   2.00000   0.00000   0.00000   0.00000
                  --------  --------  --------  --------  --------  --------
  0C   1s        -0.000828 -0.007296 -0.000000 -0.038689  0.173718 -0.044800
  0C   2s        -0.002391  0.021135  0.000001  0.086893 -0.435418  0.110119
  0C   3s         0.018105 -0.021507  0.000003  0.741760 -2.093795  0.429917
  0C   1pz       -0.056348 -0.075872  0.229588  0.013470  0.012129  0.084490
  0C   1px       -0.221122  0.156701  0.012494 -0.275963 -0.008625  0.127409
  0C   1py       -0.328138 -0.322927 -0.047873 -0.007373  0.055955  0.439455
  0C   2pz       -0.024690 -0.023370  0.063224  0.026569  0.026311  0.190479
  0C   2px       -0.059639  0.041490  0.003432 -0.565753  0.022903  0.361429
  0C   2py       -0.134002 -0.101215 -0.013188 -0.019874  0.132190  1.010290
  0C   1dz2       0.003614 -0.012888  0.004117 -0.013686 -0.004993 -0.007517
  0C   1dxz      -0.000933  0.004064 -0.032871  0.001069  0.000936  0.001902
  0C   1dyz       0.002855  0.005931  0.002289 -0.000763 -0.000082  0.010992
  0C   1dx2y2    -0.016618 -0.011029 -0.001216  0.022665  0.006757 -0.038264
  0C   1dxy      -0.010279  0.022703  0.007033  0.017174  0.008494  0.003147
  1O   1s         0.057065 -0.060859  0.000000  0.106506  0.065263 -0.029364
  1O   2s         0.117344 -0.127053 -0.000001  0.231450  0.127659 -0.057528
  1O   3s         0.145963 -0.186080  0.000009  0.755096  0.570996 -0.309901
  1O   1pz       -0.048707  0.084327 -0.589132  0.045979  0.025158 -0.001213
  1O   1px        0.434609 -0.243390 -0.032067 -0.100906 -0.144595  0.213783
  1O   1py       -0.120271  0.340877  0.122854  0.194110  0.082912  0.049838
  1O   2pz       -0.029131  0.045911 -0.395456  0.055797  0.027477 -0.010231
  1O   2px        0.227760 -0.153967 -0.021530 -0.121751 -0.199162  0.323335
  1O   2py       -0.080330  0.179989  0.082466  0.235739  0.079761  0.034976
  1O   1dz2       0.003785 -0.005708 -0.002938  0.000477  0.005191 -0.002747
  1O   1dxz       0.003497 -0.000259  0.003166 -0.001569 -0.001099 -0.003099
  1O   1dyz      -0.000180  0.003314 -0.006930 -0.000632 -0.000563 -0.000742
  1O   1dx2y2    -0.009208 -0.005334 -0.001341  0.003913 -0.004080  0.011153
  1O   1dxy       0.012603  0.000130 -0.001076 -0.006729 -0.008697 -0.010730
  2H   1s        -0.019493 -0.174224 -0.226221 -0.067320  0.066013 -0.076854
  2H   2s         0.001147 -0.056376 -0.085881 -0.511546  0.912674 -0.728538
  2H   1pz       -0.002397 -0.012422 -0.002734  0.008400 -0.007909  0.011303
  2H   1px       -0.004877 -0.000209 -0.002657 -0.009715 -0.012937  0.013340
  2H   1py       -0.007195 -0.003880  0.008136 -0.012678  0.002735  0.010680
  3H   1s        -0.019437 -0.174219  0.226226 -0.067300  0.066015 -0.076701
  3H   2s         0.001157 -0.056375  0.085875 -0.511374  0.912707 -0.727155
  3H   1pz       -0.000178  0.009794 -0.006010 -0.011696  0.009641 -0.007419
  3H   1px       -0.004754  0.001000  0.002182 -0.010807 -0.011983  0.012312
  3H   1py       -0.007660 -0.008514 -0.006311 -0.008486 -0.000926  0.014597
  4H   1s         0.264734  0.301810 -0.000004 -0.034191  0.091665  0.235425
  4H   2s         0.044122  0.099222 -0.000007 -0.332214  1.168244  1.419634
  4H   1pz        0.002829  0.001998  0.009511  0.002601 -0.002449 -0.004616
  4H   1px        0.000078  0.005243  0.000518 -0.016566 -0.011322  0.007385
  4H   1py        0.013573  0.010946 -0.001984  0.008144 -0.014698 -0.020177
  5H   1s         0.000657  0.198731 -0.000002 -0.221797 -0.119580 -0.092797
  5H   2s         0.020513  0.044046  0.000004 -0.849124 -0.446125 -0.321521
  5H   1pz       -0.001327 -0.002763 -0.021240 -0.001990 -0.000155 -0.001236
  5H   1px        0.019742 -0.008837 -0.001156 -0.004122 -0.013723 -0.006421
  5H   1py       -0.001215 -0.015554  0.004430 -0.010645 -0.004334 -0.007627
                     12        13        14        15        16        17   
                   0.05908   0.07087   0.34118   0.35949   0.36390   0.46529
                   0.00000   0.00000   0.00000   0.00000   0.00000   0.00000
                  --------  --------  --------  --------  --------  --------
  0C   1s        -0.000017  0.053070 -0.103679 -0.000319  0.112069 -0.044395
  0C   2s         0.000067 -0.145296  0.625827  0.001920 -0.661343  0.339783
  0C   3s         0.000025 -0.407994 -1.361562 -0.004001  1.353185 -0.881664
  0C   1pz        0.467324  0.046900 -0.033174  0.204725 -0.028355  0.097375
  0C   1px        0.025424 -0.393054  0.569557  0.012591 -0.503282 -0.379889
  0C   1py       -0.097212  0.122651 -0.010221 -0.041906 -0.270251  0.368361
  0C   2pz        1.065837  0.127316  0.144327 -1.151851  0.163983 -0.253101
  0C   2px        0.058006 -1.003676 -1.019953 -0.065079  0.841368  0.553105
  0C   2py       -0.221767  0.349318  0.425099  0.237302  1.021930 -1.070444
  0C   1dz2      -0.011050 -0.040042 -0.047842  0.039881 -0.065557 -0.035091
  0C   1dxz       0.019369 -0.002641  0.002399 -0.058818  0.000331  0.013803
  0C   1dyz      -0.024082  0.009103  0.030298  0.089390  0.032652  0.006025
  0C   1dx2y2    -0.004241  0.024531 -0.061178  0.016486 -0.040914  0.010264
  0C   1dxy      -0.005490  0.012386  0.018746  0.017596  0.023168  0.084913
  1O   1s        -0.000002  0.029177  0.001519 -0.000134  0.050276  0.037904
  1O   2s        -0.000001  0.053873 -0.041350 -0.000626  0.232322  0.138727
  1O   3s        -0.000043  0.329997  0.656987  0.001996 -0.702909 -0.267049
  1O   1pz       -0.074778 -0.041690 -0.012788  0.212411 -0.004931  0.065341
  1O   1px       -0.004020 -0.304781  0.244038  0.011874 -0.105095 -0.168784
  1O   1py        0.015592 -0.279551  0.002491 -0.044136 -0.053976  0.269260
  1O   2pz       -0.145435 -0.058238 -0.005346  0.144255 -0.034442  0.038944
  1O   2px       -0.007849 -0.463526 -0.129953  0.007354  0.172245  0.109522
  1O   2py        0.030298 -0.400347 -0.059450 -0.029738 -0.122216  0.215464
  1O   1dz2      -0.002099 -0.000815 -0.017530  0.002541  0.026512  0.047014
  1O   1dxz      -0.012318 -0.001289 -0.003624  0.012531 -0.002656 -0.004333
  1O   1dyz      -0.008755  0.002919 -0.005875  0.010176 -0.002254 -0.027717
  1O   1dx2y2    -0.002539 -0.009764  0.056202  0.002947 -0.026931  0.053635
  1O   1dxy       0.002058 -0.008192  0.004953 -0.001937 -0.032007 -0.029493
  2H   1s         0.184887 -0.142347 -0.374298 -0.738258 -0.184724 -0.168667
  2H   2s         1.446609 -0.517839  0.373427  0.178712 -0.094279  0.742780
  2H   1pz       -0.005961  0.020408  0.029006 -0.034489  0.026001  0.036544
  2H   1px       -0.011102 -0.016496  0.014976  0.013896 -0.020836  0.035771
  2H   1py        0.017360 -0.002837  0.039416 -0.027291  0.039073 -0.033001
  3H   1s        -0.184992 -0.142275 -0.374461  0.739254 -0.180695 -0.168601
  3H   2s        -1.447372 -0.517452  0.373444 -0.178044 -0.095216  0.742450
  3H   1pz       -0.013519 -0.018007 -0.012274 -0.019069 -0.006062 -0.050152
  3H   1px        0.010050 -0.018592  0.012726 -0.016680 -0.022662  0.031030
  3H   1py       -0.013283  0.005179  0.048015  0.038240  0.045951 -0.014917
  4H   1s         0.000120  0.054021  0.509665 -0.001898  0.728234 -0.001350
  4H   2s         0.000752  0.684757 -0.057900  0.001139 -0.427905 -0.624062
  4H   1pz        0.019250  0.000452  0.000100 -0.083375 -0.000367 -0.003249
  4H   1px        0.001045 -0.019982  0.002804 -0.004514 -0.008350 -0.055361
  4H   1py       -0.004025 -0.003036  0.001182  0.017389 -0.002773 -0.030029
  5H   1s        -0.000045  0.185754 -0.326313 -0.000137  0.029276 -1.012651
  5H   2s        -0.000045  0.851363  0.337239  0.001295 -0.441267  0.991705
  5H   1pz       -0.013159  0.003339 -0.004522  0.000383  0.000452 -0.022190
  5H   1px       -0.000722 -0.011305  0.010943  0.000270 -0.092099 -0.007687
  5H   1py        0.002738  0.013056 -0.018834 -0.000028 -0.021849 -0.108419
                     18        19        20        21        22        23   
                   0.51149   0.52898   0.54552   0.58830   0.78286   0.78481
                   0.00000   0.00000   0.00000   0.00000   0.00000   0.00000
                  --------  --------  --------  --------  --------  --------
  0C   1s        -0.210937 -0.000023 -0.021208 -0.130077 -0.038301 -0.000004
  0C   2s         1.166141  0.000174 -0.056065  1.516625  0.463989  0.000048
  0C   3s        -2.749187 -0.000533  0.374873 -5.037182 -0.821578 -0.000117
  0C   1pz       -0.053703 -0.903309  0.154064  0.026722  0.016144 -0.025879
  0C   1px       -0.366441 -0.049185 -0.142660 -0.217718  0.107788 -0.001407
  0C   1py       -0.353734  0.188208  0.702045  0.071094  0.105603  0.005409
  0C   2pz        0.135855  1.924859 -0.303941 -0.057757  0.046996 -0.356964
  0C   2px        0.653940  0.104800  0.301684  0.631528  0.042896 -0.019421
  0C   2py        0.823477 -0.401025 -1.379823 -0.111731  0.236322  0.074431
  0C   1dz2      -0.018317  0.030647 -0.066639  0.010917 -0.126208  0.043931
  0C   1dxz      -0.006693 -0.098167  0.000936 -0.000591 -0.038854  0.068421
  0C   1dyz      -0.004310  0.055256  0.036314  0.000815  0.047770  0.133851
  0C   1dx2y2     0.054412  0.006906 -0.056840 -0.019320  0.032275  0.032667
  0C   1dxy      -0.009795  0.023866  0.021806 -0.012801 -0.117667 -0.006411
  1O   1s        -0.028065  0.000007 -0.061156  0.084194 -0.101224 -0.000007
  1O   2s        -0.107121  0.000029 -0.268865  0.338440 -0.436771 -0.000036
  1O   3s         0.059724  0.000016  0.272382  0.257630  0.260001  0.000057
  1O   1pz       -0.000668  0.022256 -0.056526 -0.043933  0.116094 -0.808308
  1O   1px        0.096458  0.001240  0.090656 -0.049935 -0.512933 -0.044030
  1O   1py        0.021984 -0.004655 -0.247438 -0.223728  0.422654  0.168570
  1O   2pz       -0.030501 -0.203739  0.055001  0.038814 -0.206311  0.982153
  1O   2px        0.017245 -0.011132 -0.043092 -0.278639  0.660969  0.053495
  1O   2py       -0.141934  0.042424  0.252649  0.113431 -0.816563 -0.204825
  1O   1dz2      -0.005465 -0.003172 -0.024596 -0.021400 -0.032235  0.004967
  1O   1dxz       0.001304  0.022134 -0.000376  0.001225  0.001567  0.000427
  1O   1dyz       0.005491 -0.002584  0.019159  0.007516  0.011161  0.013234
  1O   1dx2y2    -0.016984  0.000587 -0.044897 -0.001539 -0.001276  0.002900
  1O   1dxy       0.004580 -0.004794 -0.001368  0.015551  0.022343  0.000698
  2H   1s        -0.485257 -0.403092 -0.428529  0.540524  0.058628 -0.117649
  2H   2s         0.899233  1.727008  0.892904  1.158395  0.212087 -0.006273
  2H   1pz        0.062518  0.070259  0.066167 -0.005229  0.113869 -0.025608
  2H   1px        0.003896  0.076961  0.027052  0.029649 -0.129131 -0.139993
  2H   1py       -0.052815 -0.061517 -0.020534  0.004695  0.070649 -0.126143
  3H   1s        -0.485303  0.403178 -0.428436  0.540427  0.058617  0.117670
  3H   2s         0.899622 -1.727046  0.892513  1.158637  0.212049  0.006339
  3H   1pz       -0.078452  0.096557 -0.071270  0.003545 -0.062166  0.012377
  3H   1px       -0.003765 -0.067881  0.019551  0.030130 -0.138729  0.139263
  3H   1py       -0.023430  0.026740  0.008133  0.002850  0.107343  0.128912
  4H   1s        -0.605970 -0.000059  0.232646  0.600546  0.263789  0.000025
  4H   2s         1.716470  0.000493 -1.576521  0.874474  0.067464  0.000001
  4H   1pz        0.026757 -0.023617 -0.015689 -0.004288 -0.016040 -0.172519
  4H   1px        0.019750 -0.001274 -0.033369 -0.002195  0.173409 -0.009387
  4H   1py        0.133491  0.004953 -0.083943 -0.021169 -0.031698  0.035973
  5H   1s         0.247163  0.000084  0.589531  0.153769  0.477756  0.000010
  5H   2s        -0.394439 -0.000083 -0.729921  0.124857 -0.131779 -0.000016
  5H   1pz        0.002796  0.001528  0.024582  0.004239 -0.023058  0.058487
  5H   1px       -0.025995  0.000081  0.010547  0.075872  0.042036  0.003190
  5H   1py        0.006632 -0.000321  0.120603  0.040107 -0.099604 -0.012196
                     24        25        26        27        28        29   
                   0.85902   1.06484   1.14696   1.29733   1.33731   1.36266
                   0.00000   0.00000   0.00000   0.00000   0.00000   0.00000
                  --------  --------  --------  --------  --------  --------
  0C   1s         0.004043 -0.000001 -0.031408 -0.011514 -0.000000  0.000001
  0C   2s        -0.133332 -0.000000  0.402924 -0.105597  0.000011 -0.000016
  0C   3s        -0.314544  0.000057 -2.318164  2.651291 -0.000122  0.000141
  0C   1pz        0.043071 -0.039529  0.020596  0.004772  0.025264  0.013960
  0C   1px       -0.062407 -0.002149 -0.044306  0.298354  0.001368  0.000775
  0C   1py        0.190226  0.008247  0.087202  0.100772 -0.005265 -0.002910
  0C   2pz       -0.065263  0.561607  0.079100  0.056556 -0.366396 -0.021398
  0C   2px       -0.333677  0.030589 -0.627662  0.666370 -0.019964 -0.001142
  0C   2py       -0.399955 -0.117131  0.215342  0.445257  0.076407  0.004478
  0C   1dz2      -0.023632  0.057467  0.155127 -0.025849 -0.038133 -0.002048
  0C   1dxz      -0.033893  0.336242  0.079271  0.033613 -0.014734  0.010459
  0C   1dyz       0.031755  0.239494 -0.042787 -0.028064 -0.104531 -0.002660
  0C   1dx2y2    -0.059738  0.069595 -0.146699  0.118950 -0.023495 -0.000033
  0C   1dxy      -0.165255 -0.056337  0.268161  0.201960 -0.003116 -0.002348
  1O   1s         0.134733  0.000004 -0.098994  0.174821 -0.000006  0.000007
  1O   2s         0.773703  0.000028 -0.634434  1.368562 -0.000046  0.000049
  1O   3s        -1.132903 -0.000051  1.269159 -3.163305  0.000107 -0.000109
  1O   1pz        0.048295  0.346680  0.072565  0.041024 -0.161372  0.020263
  1O   1px        0.513042  0.018862  0.173183 -0.314011 -0.008770  0.001088
  1O   1py        0.365585 -0.072305  0.393111  0.114806  0.033661 -0.004237
  1O   2pz       -0.156411 -0.569353 -0.205918 -0.195519  0.624109 -0.083422
  1O   2px       -0.979380 -0.030967 -0.600775  1.141062  0.033928 -0.004482
  1O   2py       -1.005758  0.118761 -1.144086 -0.639874 -0.130159  0.017411
  1O   1dz2      -0.000111 -0.005370 -0.017141 -0.114143 -0.078954  0.014575
  1O   1dxz       0.004985 -0.110283 -0.030251 -0.003392  0.014372  0.000197
  1O   1dyz       0.003795 -0.042964  0.021888  0.036393 -0.204682  0.038538
  1O   1dx2y2    -0.022252 -0.015088 -0.031488  0.019832 -0.043752  0.008392
  1O   1dxy       0.018285  0.020595 -0.143888  0.042531 -0.015178  0.002246
  2H   1s         0.015795  0.111787  0.163091 -0.271185 -0.080392 -0.017250
  2H   2s         0.035648  0.186624  0.256308 -0.368166 -0.160079  0.003219
  2H   1pz        0.084995  0.036270 -0.162336 -0.082526  0.026457  0.422905
  2H   1px       -0.058218 -0.298000  0.106337  0.176744  0.160952 -0.130341
  2H   1py        0.028858 -0.252272 -0.091624  0.035124  0.130077  0.411766
  3H   1s         0.015782 -0.111805  0.163075 -0.271175  0.080415  0.017233
  3H   2s         0.035694 -0.186623  0.256298 -0.368144  0.160115 -0.003269
  3H   1pz       -0.059893  0.102595  0.100361  0.070808 -0.010998  0.207684
  3H   1px       -0.066100  0.305555  0.120662  0.185084 -0.160130  0.164662
  3H   1py        0.059071  0.223326 -0.146398  0.003146 -0.133329 -0.543291
  4H   1s        -0.006262 -0.000012  0.307700 -0.111311  0.000021 -0.000010
  4H   2s        -0.284722 -0.000010  0.362414 -0.277163  0.000011 -0.000014
  4H   1pz       -0.019636 -0.236521  0.025445  0.038273 -0.132571 -0.531423
  4H   1px        0.211290 -0.012863 -0.277261 -0.378549 -0.007212 -0.028910
  4H   1py       -0.038993  0.049320  0.049711  0.084668  0.027642  0.110820
  5H   1s         0.396007 -0.000006  0.412102  0.778831 -0.000011  0.000009
  5H   2s         0.955522 -0.000010  0.324037 -0.041693 -0.000000 -0.000010
  5H   1pz       -0.045837 -0.249980  0.012831 -0.043630 -0.875587  0.154754
  5H   1px       -0.009337 -0.013591 -0.385605  0.210360 -0.047667  0.008415
  5H   1py       -0.222262  0.052133 -0.039190 -0.154166  0.182604 -0.032274
                     30        31        32        33        34        35   
                   1.40126   1.54828   1.59757   1.64674   1.69499   1.82341
                   0.00000   0.00000   0.00000   0.00000   0.00000   0.00000
                  --------  --------  --------  --------  --------  --------
  0C   1s         0.046145 -0.000005 -0.030505 -0.026121  0.000001 -0.014843
  0C   2s        -0.291355  0.000030  0.176596  0.110188  0.000007  0.168780
  0C   3s        -1.572651  0.000033  0.243262  0.120423 -0.000097  0.206616
  0C   1pz       -0.010947  0.176539  0.050479 -0.052346 -0.347471 -0.046836
  0C   1px       -0.348523  0.009612  0.031085  0.020658 -0.018919  0.233396
  0C   1py       -0.143526 -0.036784  0.250202 -0.245530  0.072497 -0.163642
  0C   2pz       -0.005783 -1.161084 -0.202208  0.085401 -0.129456 -0.201078
  0C   2px       -0.726116 -0.063147  0.814980  0.782449 -0.007099  0.166050
  0C   2py       -0.217145  0.242016 -0.757501  0.614042  0.026918 -0.920970
  0C   1dz2       0.113368 -0.103571 -0.391053 -0.020627  0.095332  0.118211
  0C   1dxz      -0.012660  0.013417 -0.010053 -0.031935 -0.541520 -0.087062
  0C   1dyz      -0.003538 -0.269797  0.126450 -0.099821  0.110383 -0.042745
  0C   1dx2y2    -0.140688 -0.057963  0.058645  0.500061 -0.004271  0.111656
  0C   1dxy      -0.148707 -0.018836  0.150821 -0.018055  0.120188 -0.442850
  1O   1s        -0.108839  0.000002 -0.005061 -0.048979  0.000000  0.042402
  1O   2s        -0.898974  0.000022  0.100699 -0.142431 -0.000013  0.262251
  1O   3s         2.127202 -0.000060 -0.685381 -0.471662  0.000083 -0.288964
  1O   1pz        0.015625 -0.096870 -0.023584  0.008775  0.066497 -0.000877
  1O   1px        0.174194 -0.005265  0.192654  0.254836  0.003614 -0.126014
  1O   1py        0.120395  0.020188 -0.062841  0.108568 -0.013872 -0.037099
  1O   2pz        0.036107  0.417373  0.066787 -0.023463  0.110203  0.073224
  1O   2px       -1.275114  0.022753  0.161420 -0.002138  0.005969  0.519309
  1O   2py       -0.159709 -0.086981  0.362617 -0.113158 -0.022967  0.486690
  1O   1dz2       0.113200 -0.018973 -0.047325 -0.000438 -0.021734  0.008952
  1O   1dxz       0.042820  0.098736 -0.013288  0.027062  0.255002  0.009673
  1O   1dyz      -0.031565 -0.024299  0.008503 -0.017109  0.009186  0.000132
  1O   1dx2y2    -0.087299 -0.000132  0.051074  0.041417  0.015285 -0.025918
  1O   1dxy       0.129034 -0.022172 -0.028244  0.139346 -0.052976  0.035456
  2H   1s         0.108986 -0.387347  0.274892 -0.017685  0.133394  0.041052
  2H   2s         0.148974 -0.292040  0.069867  0.064335 -0.340928  0.305018
  2H   1pz        0.085156  0.448409  0.058589  0.060959 -0.152812  0.325464
  2H   1px        0.246861 -0.274804 -0.340169 -0.284268 -0.502471  0.237930
  2H   1py        0.294429 -0.144945  0.319481 -0.229899  0.161848  0.254152
  3H   1s         0.108989  0.387381  0.274819 -0.017666 -0.133358  0.041026
  3H   2s         0.148996  0.292064  0.069802  0.064397  0.340947  0.305032
  3H   1pz        0.014098  0.437820  0.109270 -0.117596 -0.255992 -0.220047
  3H   1px        0.243003  0.323012 -0.337502 -0.293880  0.480238  0.208236
  3H   1py        0.309225 -0.039771  0.308900 -0.192687 -0.076550  0.367902
  4H   1s         0.042096 -0.000054 -0.337232  0.361839 -0.000031 -0.185878
  4H   2s         0.174209 -0.000026 -0.144122  0.015924  0.000012 -0.640159
  4H   1pz        0.032261  0.572672  0.096274 -0.058479  0.151051 -0.016751
  4H   1px       -0.296926  0.031155 -0.406735 -0.479944  0.008247 -0.403799
  4H   1py        0.077281 -0.119378  0.355806 -0.405879 -0.031447 -0.185641
  5H   1s        -0.204070 -0.000017 -0.073869  0.057532 -0.000016 -0.166849
  5H   2s         0.124201  0.000010  0.031168 -0.182676  0.000025 -0.012501
  5H   1pz       -0.045304 -0.098160  0.017999 -0.011432 -0.202961  0.067857
  5H   1px        0.619225 -0.005391 -0.177136  0.166780 -0.011061 -0.648688
  5H   1py       -0.055613  0.020480  0.040005 -0.011233  0.042330  0.156095
                     36        37        38        39        40        41   
                   1.96978   2.02082   2.13588   2.17117   2.45030   2.58845
                   0.00000   0.00000   0.00000   0.00000   0.00000   0.00000
                  --------  --------  --------  --------  --------  --------
  0C   1s         0.025979  0.065827 -0.000004 -0.002942  0.255760 -0.000008
  0C   2s        -0.114913 -0.406626  0.000028  0.005698 -1.444170  0.000054
  0C   3s        -0.196691 -0.067288 -0.000001  0.044111 -1.531893  0.000053
  0C   1pz        0.004720 -0.009976 -0.297682 -0.056955 -0.000388 -0.873708
  0C   1px        0.244292  0.241171 -0.016230  0.082575  0.362251 -0.047563
  0C   1py        0.086427  0.015174  0.062077 -0.251488  0.092787  0.182202
  0C   2pz        0.013809  0.007047 -0.786553 -0.125772  0.005140 -0.739135
  0C   2px        0.335656  0.525427 -0.042867  0.078755  0.084726 -0.040215
  0C   2py        0.153975  0.171153  0.164036 -0.582361  0.046902  0.154148
  0C   1dz2       0.060529  0.369010  0.194313  0.372310 -0.366845 -0.355276
  0C   1dxz      -0.027764  0.061156  0.414065  0.178784 -0.028309  0.479517
  0C   1dyz       0.066963 -0.060722  0.621155 -0.192961  0.017131 -0.812773
  0C   1dx2y2    -0.345944 -0.370418  0.156639  0.050727  0.514996 -0.151723
  0C   1dxy      -0.246826  0.025471 -0.050017  0.689124  0.165741 -0.148891
  1O   1s        -0.037146  0.100187 -0.000004 -0.028696 -0.053521  0.000002
  1O   2s        -0.150668  0.509605 -0.000027 -0.087581 -0.351274  0.000016
  1O   3s        -0.603615 -0.245548  0.000073 -0.387951  0.660858 -0.000046
  1O   1pz       -0.085081  0.064343 -0.092793 -0.053638 -0.003848 -0.015370
  1O   1px       -0.164646 -0.124439 -0.005040  0.017812  0.175205 -0.000840
  1O   1py       -0.450947  0.276085  0.019360 -0.252540  0.027287  0.003205
  1O   2pz       -0.012824  0.011477  0.234534 -0.017599  0.010440  0.072652
  1O   2px        0.130505  0.135918  0.012748 -0.072044 -0.346478  0.003974
  1O   2py       -0.027461  0.090443 -0.048906 -0.103253 -0.040396 -0.015154
  1O   1dz2      -0.048523  0.212609  0.048221 -0.107558 -0.163524 -0.095733
  1O   1dxz       0.018458  0.003150 -0.306697 -0.059951 -0.012792 -0.383843
  1O   1dyz       0.052985 -0.078918  0.047250  0.052882  0.030567 -0.352957
  1O   1dx2y2    -0.177422  0.014842 -0.005711  0.007846  0.130996 -0.096746
  1O   1dxy       0.066800 -0.081424  0.067174 -0.233042  0.048678  0.059581
  2H   1s         0.062964  0.066198 -0.213185  0.105386  0.636566 -0.750325
  2H   2s         0.077811  0.171516 -0.425764  0.167655  0.406429 -0.453991
  2H   1pz        0.087035  0.374856  0.018958  0.495281  0.547415 -0.593421
  2H   1px       -0.184930 -0.303597  0.024991 -0.117423  0.462173 -0.492411
  2H   1py       -0.323095 -0.226975  0.488371  0.284536 -0.432775  0.383593
  3H   1s         0.062985  0.066232  0.213169  0.105404  0.636604  0.750278
  3H   2s         0.077834  0.171542  0.425722  0.167705  0.406457  0.453970
  3H   1pz       -0.188844 -0.400459 -0.174692 -0.325708 -0.719422 -0.744812
  3H   1px       -0.199943 -0.345794 -0.033401 -0.162100  0.393245  0.419541
  3H   1py       -0.265586 -0.065338 -0.455881  0.455697 -0.168604 -0.104509
  4H   1s         0.059586  0.108652 -0.000003 -0.209202  0.648880 -0.000019
  4H   2s         0.194567  0.188755 -0.000000 -0.415406  0.418416 -0.000008
  4H   1pz        0.065511  0.072440  0.719215 -0.075754  0.156121 -0.055513
  4H   1px       -0.361238 -0.232029  0.039161  0.255156  0.186242 -0.003030
  4H   1py        0.219721  0.286585 -0.149999 -0.296817  0.797249  0.011551
  5H   1s         0.156279 -0.114309 -0.000014  0.255127 -0.028153  0.000006
  5H   2s         0.256003 -0.314123 -0.000000  0.243409 -0.010203 -0.000003
  5H   1pz       -0.171220  0.117625 -0.083389 -0.099520 -0.000220  0.220916
  5H   1px       -0.081842  0.228503 -0.004548  0.042877 -0.008815  0.012027
  5H   1py       -0.842390  0.623694  0.017403 -0.465998 -0.003375 -0.046070
                     42        43        44        45        46        47   
                   2.62038   2.70268   2.82513   2.93304   3.05705   3.49698
                   0.00000   0.00000   0.00000   0.00000   0.00000   0.00000
                  --------  --------  --------  --------  --------  --------
  0C   1s         0.007919  0.000001 -0.000001 -0.029389  0.048519  0.018434
  0C   2s        -0.068877 -0.000008  0.000014  0.208632 -0.179919 -0.033511
  0C   3s        -0.082587  0.000012  0.000004  0.197153 -0.622518 -0.129414
  0C   1pz       -0.196782  0.068289 -0.512066 -0.085090 -0.001557 -0.008425
  0C   1px        0.081645  0.003719 -0.027886  0.366520 -0.511051 -0.176159
  0C   1py       -0.922340 -0.014246  0.106796 -0.312386 -0.140851 -0.086391
  0C   2pz       -0.141709  0.216319 -0.208155 -0.061568 -0.017804  0.006343
  0C   2px        0.077102  0.011776 -0.011335  0.166526 -0.421952 -0.212569
  0C   2py       -0.659418 -0.045109  0.043414 -0.251796 -0.195489 -0.025074
  0C   1dz2      -0.803127  0.086677 -0.202215 -0.494474  0.326637  0.033700
  0C   1dxz      -0.016015  0.290253  0.855546  0.101129  0.074521 -0.000389
  0C   1dyz       0.442079  0.304598 -0.310573  0.191148  0.007231  0.056373
  0C   1dx2y2    -0.671126  0.081346 -0.022931 -0.199477 -0.615610 -0.293273
  0C   1dxy       0.135383 -0.042806 -0.197984  0.665387  0.048364 -0.090560
  1O   1s         0.008824 -0.000000  0.000000  0.009477  0.004266 -0.045072
  1O   2s        -0.022449  0.000002 -0.000003  0.230153 -0.285006 -0.132923
  1O   3s         0.340220 -0.000007  0.000012 -0.839070  1.469055 -0.832565
  1O   1pz        0.014349  0.042307  0.012084 -0.003099  0.027107 -0.063431
  1O   1px        0.029378  0.002303  0.000655 -0.027708 -0.023598 -0.062881
  1O   1py        0.076474 -0.008821 -0.002522 -0.022083  0.123823 -0.320573
  1O   2pz        0.056740 -0.322042 -0.025979 -0.083132  0.051155 -0.201220
  1O   2px       -0.233414 -0.017525 -0.001419  0.525127 -0.624172 -0.349515
  1O   2py        0.211163  0.067155  0.005421 -0.261600  0.082373 -1.056131
  1O   1dz2      -0.226495 -0.326243  0.119082  0.532156 -0.697340  0.390303
  1O   1dxz      -0.095772  0.526220  0.633666  0.193959  0.058115 -0.041588
  1O   1dyz       0.105930 -0.723917  0.479791 -0.189792  0.144168 -0.385377
  1O   1dx2y2     0.002762 -0.129956  0.137343 -0.223021  0.361872  1.120894
  1O   1dxy      -0.349030 -0.153407 -0.104466  0.618164  0.695460 -0.103683
  2H   1s         0.438948  0.067231 -0.490579  0.299689 -0.035453  0.000517
  2H   2s         0.238982  0.083275 -0.141710  0.092270  0.057130 -0.018521
  2H   1pz        0.292113  0.027338 -0.418304  0.252499  0.007841 -0.027833
  2H   1px        0.262819  0.119098 -0.122719  0.154542 -0.112709  0.042724
  2H   1py       -0.311069  0.069441  0.342556 -0.144079  0.051751 -0.015963
  3H   1s         0.438945 -0.067222  0.490551  0.299681 -0.035450  0.000511
  3H   2s         0.238980 -0.083281  0.141700  0.092266  0.057133 -0.018519
  3H   1pz       -0.417503  0.009616 -0.530436 -0.303582  0.025207  0.014558
  3H   1px        0.224194 -0.117080  0.071074  0.124272 -0.111757  0.045030
  3H   1py       -0.163080 -0.077150 -0.144696 -0.028109  0.048131 -0.024801
  4H   1s        -0.921073 -0.000003  0.000006 -0.457321 -0.186536 -0.131898
  4H   2s        -0.474218 -0.000002  0.000002 -0.219570 -0.024978 -0.073021
  4H   1pz       -0.193734  0.092820  0.004013 -0.103939 -0.042788 -0.025938
  4H   1px       -0.286989  0.005054  0.000215  0.097572  0.026685 -0.104246
  4H   1py       -1.003928 -0.019360 -0.000832 -0.472948 -0.198222 -0.151592
  5H   1s        -0.205058  0.000003 -0.000002  0.336022 -0.438267  1.385851
  5H   2s        -0.008655 -0.000000 -0.000003  0.067687  0.020699  0.377805
  5H   1pz        0.026399  0.453415 -0.228240 -0.000563  0.079525 -0.210697
  5H   1px        0.223531  0.024677 -0.012425 -0.408918 -0.157759 -0.117131
  5H   1py        0.184937 -0.094554  0.047597 -0.109373  0.340158 -1.040907
--------------
SCF ITERATIONS
--------------
               ***  Starting incremental Fock matrix formation  ***

                         ----------------------------
                         !        ITERATION     0   !
                         ----------------------------
   Total Energy        :    -115.518072455702 Eh
   Energy Change       :    -115.518072455702 Eh
   MAX-DP              :       0.074538043380
   RMS-DP              :       0.004717305102
   Actual Damping      :       0.7000
   Actual Level Shift  :       0.2500 Eh
   Int. Num. El.       :    18.00000570 (UP=    9.00000285 DN=    9.00000285)
   Exchange            :   -15.15346930
   Correlation         :    -0.59582784


                         ----------------------------
                         !        ITERATION     1   !
                         ----------------------------
   Total Energy        :    -115.554768328262 Eh
   Energy Change       :      -0.036695872560 Eh
   MAX-DP              :       0.041344915711
   RMS-DP              :       0.003029429702
   Actual Damping      :       0.7000
   Actual Level Shift  :       0.2500 Eh
   Int. Num. El.       :    18.00000699 (UP=    9.00000349 DN=    9.00000349)
   Exchange            :   -14.98246606
   Correlation         :    -0.59132629

                               ***Turning on DIIS***

                         ----------------------------
                         !        ITERATION     2   !
                         ----------------------------
   Total Energy        :    -115.566478578982 Eh
   Energy Change       :      -0.011710250721 Eh
   MAX-DP              :       0.049370833936
   RMS-DP              :       0.004389111366
   Actual Damping      :       0.0000
   Actual Level Shift  :       0.2500 Eh
   Int. Num. El.       :    18.00000766 (UP=    9.00000383 DN=    9.00000383)
   Exchange            :   -14.88815140
   Correlation         :    -0.58845162
   DIIS-Error          :       0.017782468957


                         ----------------------------
                         !        ITERATION     3   !
                         ----------------------------
   Total Energy        :    -115.587117755050 Eh
   Energy Change       :      -0.020639176067 Eh
   MAX-DP              :       0.028176473615
   RMS-DP              :       0.002038484524
   Actual Damping      :       0.0000
   Actual Level Shift  :       0.2500 Eh
   Int. Num. El.       :    18.00000784 (UP=    9.00000392 DN=    9.00000392)
   Exchange            :   -14.79621674
   Correlation         :    -0.58489489
   DIIS-Error          :       0.054643897437
   DIIS coefficients:
      0.64008   0.35992


                         ----------------------------
                         !        ITERATION     4   !
                         ----------------------------
   Total Energy        :    -115.591343805274 Eh
   Energy Change       :      -0.004226050225 Eh
   MAX-DP              :       0.007557389626
   RMS-DP              :       0.000611977451
   Actual Damping      :       0.0000
   Actual Level Shift  :       0.2500 Eh
   Int. Num. El.       :    18.00000720 (UP=    9.00000360 DN=    9.00000360)
   Exchange            :   -14.85913855
   Correlation         :    -0.58684863
   DIIS-Error          :       0.011212380314
   DIIS coefficients:
      0.28469   0.06956   0.64574

                      *** Initiating the SOSCF procedure ***
                           *** Shutting down DIIS ***
                      *** Re-Reading the Fockian *** 
                      *** Removing any level shift *** 

                         ----------------------------
                         !        ITERATION     5   !
                         ----------------------------
   Total Energy        :    -115.591585093301 Eh
   Energy Change       :      -0.000241288026 Eh
   MAX-DP              :       0.002511885923
   RMS-DP              :       0.000233375098
   Orbital gradient    :       0.000740067969
   Orbital Rotation    :       0.000740067969
   Actual Damping      :       0.0000
   Int. Num. El.       :    18.00000727 (UP=    9.00000363 DN=    9.00000363)
   Exchange            :   -14.85848632
   Correlation         :    -0.58731787

               *** Restarting incremental Fock matrix formation ***

                         ----------------------------
                         !        ITERATION     6   !
                         ----------------------------
   Total Energy        :    -115.591606901712 Eh
   Energy Change       :      -0.000021808411 Eh
   MAX-DP              :       0.001515462295
   RMS-DP              :       0.000111999112
   Orbital gradient    :       0.000249746960
   Orbital Rotation    :       0.000775958782
   Actual Damping      :       0.0000
   Int. Num. El.       :    18.00000722 (UP=    9.00000361 DN=    9.00000361)
   Exchange            :   -14.86106469
   Correlation         :    -0.58736883


                         ----------------------------
                         !        ITERATION     7   !
                         ----------------------------
   Total Energy        :    -115.591607823065 Eh
   Energy Change       :      -0.000000921353 Eh
   MAX-DP              :       0.000506267165
   RMS-DP              :       0.000025272529
   Orbital gradient    :       0.000143332263
   Orbital Rotation    :       0.000185436440
   Actual Damping      :       0.0000
   Int. Num. El.       :    18.00000722 (UP=    9.00000361 DN=    9.00000361)
   Exchange            :   -14.86147142
   Correlation         :    -0.58741861


                         ----------------------------
                         !        ITERATION     8   !
                         ----------------------------
   Total Energy        :    -115.591607912894 Eh
   Energy Change       :      -0.000000089829 Eh
   MAX-DP              :       0.000331825684
   RMS-DP              :       0.000023833893
   Orbital gradient    :       0.000119405225
   Orbital Rotation    :       0.000139539355
   Actual Damping      :       0.0000
   Int. Num. El.       :    18.00000721 (UP=    9.00000360 DN=    9.00000360)
   Exchange            :   -14.86130682
   Correlation         :    -0.58740063


                         ----------------------------
                         !        ITERATION     9   !
                         ----------------------------
   Total Energy        :    -115.591608039345 Eh
   Energy Change       :      -0.000000126451 Eh
   MAX-DP              :       0.000080789957
   RMS-DP              :       0.000005254035
   Orbital gradient    :       0.000027287735
   Orbital Rotation    :       0.000033604567
   Actual Damping      :       0.0000
   Int. Num. El.       :    18.00000721 (UP=    9.00000361 DN=    9.00000361)
   Exchange            :   -14.86122684
   Correlation         :    -0.58740110


                         ----------------------------
                         !        ITERATION    10   !
                         ----------------------------
   Total Energy        :    -115.591608036165 Eh
   Energy Change       :       0.000000003179 Eh
   MAX-DP              :       0.000042818219
   RMS-DP              :       0.000002780235
   Orbital gradient    :       0.000040081090
   Orbital Rotation    :       0.000014211087
   Actual Damping      :       0.0000
   Int. Num. El.       :    18.00000721 (UP=    9.00000361 DN=    9.00000361)
   Exchange            :   -14.86139606
   Correlation         :    -0.58740583

                 **** Energy Check signals convergence ****
              ***Rediagonalizing the Fockian in SOSCF/NRSCF***

               *****************************************************
               *                     SUCCESS                       *
               *           SCF CONVERGED AFTER  11 CYCLES          *
               *****************************************************

Setting up the final grid:

General Integration Accuracy     IntAcc      ...  5.010
Radial Grid Type                 RadialGrid  ... Gauss-Chebyshev
Angular Grid (max. acc.)         AngularGrid ... Lebedev-434
Angular grid pruning method      GridPruning ... 3 (G Style)
Weight generation scheme         WeightScheme... Becke
Basis function cutoff            BFCut       ...    1.0000e-11
Integration weight cutoff        WCut        ...    1.0000e-14
Grids for H and He will be reduced by one unit

# of grid points (after initial pruning)     ...  48308 (   0.0 sec)
# of grid points (after weights+screening)   ...  46669 (   0.0 sec)
nearest neighbour list constructed           ...    0.0 sec
Grid point re-assignment to atoms done       ...    0.0 sec
Grid point division into batches done        ...    0.3 sec
Reduced shell lists constructed in    0.4 sec

Total number of grid points                  ...    46669
Total number of batches                      ...      732
Average number of points per batch           ...       63
Average number of grid points per atom       ...     7778
Average number of shells per batch           ...    19.73 (82.21%)
Average number of basis functions per batch  ...    39.32 (81.92%)
Average number of large shells per batch     ...    19.08 (96.68%)
Average number of large basis fcns per batch ...    38.30 (97.40%)
Maximum spatial batch extension              ...  13.64, 15.83, 15.83 au
Average spatial batch extension              ...   0.26,  0.25,  0.28 au

Final grid set up in    0.4 sec
Final integration                            ... done (   0.0 sec)
Change in XC energy                          ...     0.000015855
Integrated number of electrons               ...    17.999999970
Previous integrated no of electrons          ...    18.000007211

----------------
TOTAL SCF ENERGY
----------------

Total Energy       :         -115.59159219 Eh           -3145.40713 eV

Components:
Nuclear Repulsion  :           40.34540072 Eh            1097.85417 eV
Electronic Energy  :         -155.93699291 Eh           -4243.26130 eV
One Electron Energy:         -236.95934313 Eh           -6447.99154 eV
Two Electron Energy:           81.02235022 Eh            2204.73024 eV

Virial components:
Potential Energy   :         -230.12585554 Eh           -6262.04289 eV
Kinetic Energy     :          114.53426335 Eh            3116.63575 eV
Virial Ratio       :            2.00923155


DFT components:
N(Alpha)           :        8.999999984814 electrons
N(Beta)            :        8.999999984814 electrons
N(Total)           :       17.999999969629 electrons
E(X)               :      -14.861301875920 Eh       
E(C)               :       -0.587388223463 Eh       
E(XC)              :      -15.448690099384 Eh       
DFET-embed. en.    :        0.000000000000 Eh       

---------------
SCF CONVERGENCE
---------------

  Last Energy change         ...   -8.9226e-09  Tolerance :   1.0000e-08
  Last MAX-Density change    ...    6.1471e-06  Tolerance :   1.0000e-07
  Last RMS-Density change    ...    4.4348e-07  Tolerance :   5.0000e-09
  Last Orbital Gradient      ...    2.0750e-06  Tolerance :   1.0000e-05
  Last Orbital Rotation      ...    2.7529e-06  Tolerance :   1.0000e-05

             **** THE GBW FILE WAS UPDATED (opt.gbw) ****
             **** DENSITY FILE WAS UPDATED (opt.scfp) ****
             **** ENERGY FILE WAS UPDATED (opt.en.tmp) ****
             **** THE GBW FILE WAS UPDATED (opt.gbw) ****
             **** DENSITY FILE WAS UPDATED (opt.scfp) ****
----------------
ORBITAL ENERGIES
----------------

  NO   OCC          E(Eh)            E(eV) 
   0   2.0000     -18.757178      -510.4088 
   1   2.0000      -9.944675      -270.6084 
   2   2.0000      -0.912583       -24.8326 
   3   2.0000      -0.596451       -16.2303 
   4   2.0000      -0.444731       -12.1018 
   5   2.0000      -0.384341       -10.4584 
   6   2.0000      -0.369511       -10.0549 
   7   2.0000      -0.273548        -7.4436 
   8   2.0000      -0.207618        -5.6496 
   9   0.0000       0.027315         0.7433 
  10   0.0000       0.074631         2.0308 
  11   0.0000       0.113756         3.0955 
  12   0.0000       0.113771         3.0959 
  13   0.0000       0.165797         4.5116 
  14   0.0000       0.424171        11.5423 
  15   0.0000       0.443739        12.0747 
  16   0.0000       0.444642        12.0993 
  17   0.0000       0.529854        14.4181 
  18   0.0000       0.595234        16.1971 
  19   0.0000       0.610196        16.6043 
  20   0.0000       0.620585        16.8870 
  21   0.0000       0.671186        18.2639 
  22   0.0000       0.900259        24.4973 
  23   0.0000       0.902778        24.5658 
  24   0.0000       0.965751        26.2794 
  25   0.0000       1.162569        31.6351 
  26   0.0000       1.245506        33.8919 
  27   0.0000       1.387649        37.7598 
  28   0.0000       1.408204        38.3192 
  29   0.0000       1.448770        39.4230 
  30   0.0000       1.490578        40.5607 
  31   0.0000       1.639714        44.6189 
  32   0.0000       1.692591        46.0577 
  33   0.0000       1.746780        47.5323 
  34   0.0000       1.802421        49.0464 
  35   0.0000       1.906916        51.8898 
  36   0.0000       2.060564        56.0708 
  37   0.0000       2.122185        57.7476 
  38   0.0000       2.243006        61.0353 
  39   0.0000       2.276377        61.9434 
  40   0.0000       2.560104        69.6640 
  41   0.0000       2.706880        73.6580 
  42   0.0000       2.734384        74.4064 
  43   0.0000       2.850378        77.5627 
  44   0.0000       2.966949        80.7348 
  45   0.0000       3.072404        83.6044 
  46   0.0000       3.203308        87.1664 
  47   0.0000       3.629918        98.7751 
------------------
MOLECULAR ORBITALS
------------------
                      0         1         2         3         4         5   
                 -18.75718  -9.94468  -0.91258  -0.59645  -0.44473  -0.38434
                   2.00000   2.00000   2.00000   2.00000   2.00000   2.00000
                  --------  --------  --------  --------  --------  --------
  0C   1s         0.000096  0.987983  0.103642  0.226086  0.037823  0.000001
  0C   2s        -0.000134  0.049707 -0.202106 -0.465813 -0.072355 -0.000003
  0C   3s         0.014428 -0.029811 -0.007017 -0.094379 -0.019962  0.000004
  0C   1pz        0.000014  0.000005 -0.000000  0.004796 -0.043940  0.413836
  0C   1px        0.000332  0.000093 -0.120680  0.048651  0.290553  0.022540
  0C   1py        0.000156  0.000049 -0.031499  0.035700 -0.134840 -0.086287
  0C   2pz       -0.000253 -0.000121 -0.001699  0.000124 -0.020372  0.159208
  0C   2px        0.004975  0.003636 -0.015375  0.026606  0.103994  0.008677
  0C   2py        0.000087  0.000370 -0.012174  0.007521 -0.070487 -0.033182
  0C   1dz2       0.000533  0.000126  0.011477  0.000117 -0.012671  0.003859
  0C   1dxz       0.000050  0.000047 -0.000312  0.000961 -0.003591  0.002762
  0C   1dyz       0.000012 -0.000016 -0.000335 -0.000039  0.000797  0.010910
  0C   1dx2y2    -0.000918 -0.000178 -0.015520 -0.001179  0.020092  0.002518
  0C   1dxy      -0.000243  0.000119 -0.010747  0.004228 -0.006157  0.000068
  1O   1s        -0.988694 -0.000095 -0.263506  0.086673  0.052982 -0.000001
  1O   2s         0.041381  0.000751 -0.527235  0.187259  0.116815 -0.000000
  1O   3s        -0.024616 -0.004167 -0.291276  0.094374  0.124308 -0.000015
  1O   1pz        0.000450 -0.000003 -0.019901  0.023617 -0.065512  0.233872
  1O   1px       -0.001857  0.000634  0.104385  0.148409 -0.189217  0.012710
  1O   1py        0.001673  0.000151 -0.068183  0.151984 -0.363523 -0.048778
  1O   2pz       -0.000085 -0.000373 -0.002428  0.005973 -0.029690  0.152057
  1O   2px        0.005740  0.004527  0.038667  0.083509 -0.075825  0.008268
  1O   2py        0.001093 -0.000605 -0.001553  0.050448 -0.162158 -0.031712
  1O   1dz2      -0.000419  0.001044  0.008046  0.001618  0.000269  0.002681
  1O   1dxz       0.000052  0.000083  0.000816  0.000390  0.001403 -0.014917
  1O   1dyz       0.000325 -0.000140 -0.002155  0.001915 -0.003067  0.003184
  1O   1dx2y2    -0.000832 -0.001074 -0.003872 -0.011170  0.011095 -0.000084
  1O   1dxy       0.000240 -0.000365 -0.000861 -0.001678  0.009314  0.003319
  2H   1s        -0.001102 -0.003570 -0.032191 -0.168072 -0.158307 -0.269382
  2H   2s        -0.001709  0.006954 -0.007924 -0.036231 -0.043999 -0.105976
  2H   1pz       -0.000082 -0.001708 -0.004429 -0.012769 -0.009822 -0.002075
  2H   1px       -0.000456 -0.001285 -0.003732 -0.006593 -0.000769 -0.009557
  2H   1py        0.000106  0.001363  0.003445  0.010892  0.002855  0.007455
  3H   1s        -0.001102 -0.003570 -0.032190 -0.168072 -0.158311  0.269375
  3H   2s        -0.001709  0.006954 -0.007932 -0.036236 -0.044000  0.105983
  3H   1pz        0.000164  0.002233  0.005798  0.016661  0.010167 -0.005855
  3H   1px       -0.000443 -0.001070 -0.003176 -0.004992  0.000318  0.009127
  3H   1py        0.000054  0.000541  0.001312  0.004754 -0.001315 -0.005800
  4H   1s        -0.001440 -0.003757 -0.031316 -0.185637  0.013331 -0.000014
  4H   2s        -0.002146  0.006551 -0.011399 -0.042452 -0.007757 -0.000000
  4H   1pz       -0.000046 -0.000497 -0.001037 -0.003904 -0.000799  0.012563
  4H   1px       -0.000320 -0.000549 -0.001519 -0.001275  0.006851  0.000683
  4H   1py       -0.000304 -0.002525 -0.005367 -0.019051 -0.002042 -0.002620
  5H   1s        -0.001348  0.001492 -0.174287  0.180540 -0.281713 -0.000011
  5H   2s         0.001253  0.001117 -0.004968  0.026816 -0.090286  0.000001
  5H   1pz        0.000602 -0.000018  0.005392 -0.004491  0.004633  0.011213
  5H   1px       -0.000066 -0.001004  0.008430  0.001844  0.002488  0.000610
  5H   1py        0.002872 -0.000346  0.028052 -0.021051  0.022857 -0.002339
                      6         7         8         9        10        11   
                  -0.36951  -0.27355  -0.20762   0.02731   0.07463   0.11376
                   2.00000   2.00000   2.00000   0.00000   0.00000   0.00000
                  --------  --------  --------  --------  --------  --------
  0C   1s        -0.007036 -0.018064  0.000001 -0.052293 -0.144129  0.002143
  0C   2s         0.020321  0.048755 -0.000012  0.070141  0.284312 -0.003127
  0C   3s         0.024467 -0.012751  0.000050  1.155281  2.257077 -0.035800
  0C   1pz        0.066521 -0.053885  0.156770  0.015517 -0.010210  0.413397
  0C   1px        0.183163  0.182307  0.008530 -0.193838 -0.052394  0.024935
  0C   1py        0.366917 -0.210822 -0.032688  0.023701 -0.062789 -0.135101
  0C   2pz        0.031898 -0.010601  0.001307  0.036768 -0.030734  1.127880
  0C   2px        0.064300  0.043373  0.000080 -0.411321 -0.204984  0.060511
  0C   2py        0.169748 -0.039524 -0.000274  0.069285 -0.201224 -0.375086
  0C   1dz2      -0.002217 -0.012084  0.003674 -0.005631  0.001041 -0.004067
  0C   1dxz       0.000636  0.003994 -0.032521  0.001548 -0.001337  0.008849
  0C   1dyz      -0.003331  0.004850  0.001210 -0.000620  0.000497 -0.012679
  0C   1dx2y2     0.016920 -0.007501 -0.001431  0.009290 -0.002083  0.000134
  0C   1dxy       0.008280  0.022865  0.006896  0.012340 -0.007384 -0.002937
  1O   1s        -0.046297 -0.086987  0.000000  0.086342 -0.055795  0.002600
  1O   2s        -0.087523 -0.171119  0.000001  0.163155 -0.089061  0.004519
  1O   3s        -0.125777 -0.274510 -0.000012  0.673187 -0.576972  0.030763
  1O   1pz        0.024768  0.085909 -0.580955  0.049074 -0.031903 -0.076739
  1O   1px       -0.346784 -0.311822 -0.031620 -0.017390  0.080170 -0.015397
  1O   1py        0.028307  0.330589  0.121146  0.230776 -0.132068  0.025066
  1O   2pz        0.018414  0.053424 -0.446123  0.066108 -0.040386 -0.168034
  1O   2px       -0.194433 -0.223810 -0.024277  0.004950  0.117703 -0.028432
  1O   2py        0.037588  0.197799  0.093036  0.318234 -0.162882  0.053353
  1O   1dz2      -0.003357 -0.007943 -0.004851 -0.003614 -0.001341 -0.002136
  1O   1dxz      -0.004007 -0.002435  0.010038 -0.001805  0.001442 -0.008348
  1O   1dyz      -0.000627  0.004017 -0.010188  0.001690 -0.000593 -0.007954
  1O   1dx2y2     0.012660 -0.002329 -0.001692  0.000377  0.002821 -0.002794
  1O   1dxy      -0.014373 -0.008438 -0.002711 -0.006802  0.008209  0.002371
  2H   1s         0.054914 -0.154566 -0.206010 -0.037693 -0.033436  0.089031
  2H   2s         0.012478 -0.100481 -0.151196 -0.645741 -0.992044  1.686132
  2H   1pz        0.004593 -0.009863 -0.000598  0.004154  0.005799 -0.003600
  2H   1px        0.005132  0.003085  0.000734 -0.006079  0.006965 -0.005122
  2H   1py        0.007921 -0.004082  0.005816 -0.009102 -0.000628  0.010391
  3H   1s         0.054877 -0.154562  0.206014 -0.037642 -0.033429 -0.074055
  3H   2s         0.012474 -0.100481  0.151172 -0.645710 -0.992263 -1.469663
  3H   1pz       -0.001561  0.007039 -0.002786 -0.006780 -0.006258 -0.006288
[...]
     13       0.000000   0.000000   0.000000   0.000000   0.000000   0.000000
     14       0.000000   0.000000   0.000000   0.000000   0.000000   0.000000
     15       0.000000   0.000000   0.000000   0.000000   0.000000   0.000000
     16      -0.000016  -0.000020  -0.000003  -0.000012  -0.000020   0.000002
     17       0.000000   0.000000   0.000000   0.000000   0.000000   0.000000
                 12         13         14         15         16         17    
      0       0.000000   0.000000   0.000000   0.000000  -0.000034   0.000000
      1       0.000000   0.000000   0.000000   0.000000  -0.000066   0.000000
      2       0.000000   0.000000   0.000000   0.000000  -0.000015   0.000000
      3       0.000000   0.000000   0.000000   0.000000  -0.000084   0.000000
      4       0.000000   0.000000   0.000000   0.000000  -0.000145   0.000000
      5       0.000000   0.000000   0.000000   0.000000  -0.000040   0.000000
      6       0.000000   0.000000   0.000000   0.000000  -0.000016   0.000000
      7       0.000000   0.000000   0.000000   0.000000  -0.000020   0.000000
      8       0.000000   0.000000   0.000000   0.000000  -0.000003   0.000000
      9       0.000000   0.000000   0.000000   0.000000  -0.000012   0.000000
     10       0.000000   0.000000   0.000000   0.000000  -0.000020   0.000000
     11       0.000000   0.000000   0.000000   0.000000   0.000002   0.000000
     12       0.000000   0.000000   0.000000   0.000000  -0.000001   0.000000
     13       0.000000   0.000000   0.000000   0.000000  -0.000002   0.000000
     14       0.000000   0.000000   0.000000   0.000000   0.000002   0.000000
     15       0.000000   0.000000   0.000000   0.000000   0.000119   0.000000
     16      -0.000001  -0.000002   0.000002   0.000119   0.000095   0.000000
     17       0.000000   0.000000   0.000000   0.000000   0.000000   0.000000

done   (      0.3 sec)
gCP correction in the Hessian                    ...  
-----------------
gCP hessian 
from Numerical Differentiation: 
-----------------
                  0          1          2          3          4          5    
      0      -0.000226   0.000020   0.000007  -0.000006  -0.000007   0.000001
      1       0.000020  -0.000135   0.000006  -0.000007   0.000035   0.000000
      2       0.000007   0.000006  -0.000167   0.000001   0.000000   0.000036
      3      -0.000006  -0.000007   0.000001   0.000031   0.000069  -0.000000
      4      -0.000007   0.000035   0.000000   0.000069  -0.000111   0.000022
      5       0.000001   0.000000   0.000036  -0.000000   0.000022  -0.000231
      6       0.000067   0.000052  -0.000070  -0.000067   0.000017  -0.000039
      7       0.000052   0.000066   0.000071   0.000017   0.000032   0.000007
      8      -0.000070   0.000071   0.000024  -0.000039   0.000007   0.000020
      9       0.000083   0.000016   0.000075  -0.000057  -0.000002   0.000050
     10       0.000016   0.000112  -0.000033  -0.000002   0.000034   0.000001
     11       0.000075  -0.000033  -0.000038   0.000050   0.000001   0.000007
     12       0.000117  -0.000027  -0.000005  -0.000032  -0.000061  -0.000009
     13      -0.000027  -0.000069  -0.000038  -0.000061  -0.000013  -0.000008
     14      -0.000005  -0.000038   0.000113  -0.000009  -0.000008   0.000038
     15      -0.000036  -0.000053  -0.000007   0.000132  -0.000015  -0.000003
     16      -0.000053  -0.000009  -0.000006  -0.000015   0.000023  -0.000022
     17      -0.000007  -0.000006   0.000032  -0.000003  -0.000022   0.000129
                  6          7          8          9         10         11    
      0       0.000067   0.000052  -0.000070   0.000083   0.000016   0.000075
      1       0.000052   0.000066   0.000071   0.000016   0.000112  -0.000033
      2      -0.000070   0.000071   0.000024   0.000075  -0.000033  -0.000038
      3      -0.000067   0.000017  -0.000039  -0.000057  -0.000002   0.000050
      4       0.000017   0.000032   0.000007  -0.000002   0.000034   0.000001
      5      -0.000039   0.000007   0.000020   0.000050   0.000001   0.000007
      6      -0.000060  -0.000096   0.000177   0.000068   0.000003  -0.000012
      7      -0.000096  -0.000041  -0.000179   0.000003   0.000059   0.000046
      8       0.000177  -0.000179   0.000058  -0.000012   0.000046  -0.000154
      9       0.000068   0.000003  -0.000012  -0.000098  -0.000007  -0.000174
     10       0.000003   0.000059   0.000046  -0.000007  -0.000157   0.000083
     11      -0.000012   0.000046  -0.000154  -0.000174   0.000083   0.000213
     12       0.000058   0.000050  -0.000017   0.000063   0.000030   0.000028
     13       0.000050  -0.000130   0.000067   0.000030  -0.000050  -0.000114
     14      -0.000017   0.000067   0.000048   0.000028  -0.000114  -0.000036
     15      -0.000067  -0.000026  -0.000039  -0.000059  -0.000039   0.000033
     16      -0.000026   0.000014  -0.000012  -0.000039   0.000002   0.000016
     17      -0.000039  -0.000012   0.000004   0.000033   0.000016   0.000008
                 12         13         14         15         16         17    
      0       0.000117  -0.000027  -0.000005  -0.000036  -0.000053  -0.000007
      1      -0.000027  -0.000069  -0.000038  -0.000053  -0.000009  -0.000006
      2      -0.000005  -0.000038   0.000113  -0.000007  -0.000006   0.000032
      3      -0.000032  -0.000061  -0.000009   0.000132  -0.000015  -0.000003
      4      -0.000061  -0.000013  -0.000008  -0.000015   0.000023  -0.000022
      5      -0.000009  -0.000008   0.000038  -0.000003  -0.000022   0.000129
      6       0.000058   0.000050  -0.000017  -0.000067  -0.000026  -0.000039
      7       0.000050  -0.000130   0.000067  -0.000026   0.000014  -0.000012
      8      -0.000017   0.000067   0.000048  -0.000039  -0.000012   0.000004
      9       0.000063   0.000030   0.000028  -0.000059  -0.000039   0.000033
     10       0.000030  -0.000050  -0.000114  -0.000039   0.000002   0.000016
     11       0.000028  -0.000114  -0.000036   0.000033   0.000016   0.000008
     12      -0.000195   0.000031   0.000007  -0.000010  -0.000024  -0.000004
     13       0.000031   0.000287   0.000097  -0.000024  -0.000025  -0.000005
     14       0.000007   0.000097  -0.000169  -0.000004  -0.000005   0.000006
     15      -0.000010  -0.000024  -0.000004   0.000040   0.000158   0.000021
     16      -0.000024  -0.000025  -0.000005   0.000158  -0.000005   0.000029
     17      -0.000004  -0.000005   0.000006   0.000021   0.000029  -0.000179

done   (      0.0 sec)
Dipol derivatives                                ... done   (      0.1 sec)

-------
TIMINGS
-------

Total SCF Hessian time: 0 days 0 hours 0 min 6 sec 
                   F(y)            G[Q(x)]           CPSCF         Total
Table01         0.2  0.04         0.2  0.03         2.5  0.40         6.2 
Table01a        0.2  0.04,        0.2, 0.03,        2.5  0.40         6.2 
Table01b        0.2   3.5,        0.2,  3.3,        2.5  40.5         6.2 

Writing the Hessian file to the disk             ... done


Maximum memory used throughout the entire calculation: 131.8 MB

-----------------------
VIBRATIONAL FREQUENCIES
-----------------------

Scaling factor for frequencies =  1.000000000  (already applied!)

   0:         0.00 cm**-1
   1:         0.00 cm**-1
   2:         0.00 cm**-1
   3:         0.00 cm**-1
   4:         0.00 cm**-1
   5:         0.00 cm**-1
   6:       333.64 cm**-1
   7:      1037.66 cm**-1
   8:      1074.49 cm**-1
   9:      1135.72 cm**-1
  10:      1333.16 cm**-1
  11:      1421.10 cm**-1
  12:      1430.06 cm**-1
  13:      1450.79 cm**-1
  14:      2880.98 cm**-1
  15:      2927.30 cm**-1
  16:      3033.51 cm**-1
  17:      3699.35 cm**-1


------------
NORMAL MODES
------------

These modes are the Cartesian displacements weighted by the diagonal matrix
M(i,i)=1/sqrt(m[i]) where m[i] is the mass of the displaced atom
Thus, these vectors are normalized but *not* orthogonal

                  0          1          2          3          4          5    
      0       0.000000   0.000000   0.000000   0.000000   0.000000   0.000000
      1       0.000000   0.000000   0.000000   0.000000   0.000000   0.000000
      2       0.000000   0.000000   0.000000   0.000000   0.000000   0.000000
      3       0.000000   0.000000   0.000000   0.000000   0.000000   0.000000
      4       0.000000   0.000000   0.000000   0.000000   0.000000   0.000000
      5       0.000000   0.000000   0.000000   0.000000   0.000000   0.000000
      6       0.000000   0.000000   0.000000   0.000000   0.000000   0.000000
      7       0.000000   0.000000   0.000000   0.000000   0.000000   0.000000
      8       0.000000   0.000000   0.000000   0.000000   0.000000   0.000000
      9       0.000000   0.000000   0.000000   0.000000   0.000000   0.000000
     10       0.000000   0.000000   0.000000   0.000000   0.000000   0.000000
     11       0.000000   0.000000   0.000000   0.000000   0.000000   0.000000
     12       0.000000   0.000000   0.000000   0.000000   0.000000   0.000000
     13       0.000000   0.000000   0.000000   0.000000   0.000000   0.000000
     14       0.000000   0.000000   0.000000   0.000000   0.000000   0.000000
     15       0.000000   0.000000   0.000000   0.000000   0.000000   0.000000
     16       0.000000   0.000000   0.000000   0.000000   0.000000   0.000000
     17       0.000000   0.000000   0.000000   0.000000   0.000000   0.000000
                  6          7          8          9         10         11    
      0       0.000179  -0.109913  -0.270714   0.007523  -0.002673   0.003023
      1      -0.000647  -0.094021   0.026394  -0.028906  -0.127456  -0.011319
      2       0.003148  -0.013582   0.020188   0.138730  -0.026443   0.054397
      3      -0.003376   0.144471   0.199075  -0.003364  -0.031814   0.000529
      4       0.012917   0.030787   0.020112   0.012878   0.071265  -0.002007
      5      -0.061992  -0.001462  -0.006617  -0.061770   0.016587   0.009734
      6      -0.010568   0.126998  -0.399204   0.624283   0.048749  -0.220020
      7      -0.204674   0.252605  -0.281403   0.089218   0.229728  -0.419007
      8      -0.149147   0.086929  -0.087728  -0.219186   0.200411  -0.130358
      9      -0.000596   0.122251  -0.393411  -0.645697   0.032625   0.214159
     10       0.247312   0.268995  -0.301571  -0.008169   0.291518   0.440107
     11      -0.055426   0.008140   0.009412  -0.170380  -0.096106   0.025396
     12       0.015638  -0.627499   0.326086  -0.015157  -0.350993  -0.038920
     13      -0.059822  -0.021539  -0.042743   0.059117  -0.086133   0.146497
     14       0.286883   0.029588  -0.026585  -0.283534   0.001236  -0.701882
     15       0.046975  -0.605098   0.532550   0.000321   0.806427   0.000361
     16      -0.180121   0.131618  -0.008014  -0.000134  -0.047512  -0.000871
     17       0.864124   0.060391  -0.030624   0.000456  -0.053715   0.004171
                 12         13         14         15         16         17    
      0      -0.070613   0.082026  -0.048305  -0.005026   0.001284  -0.001761
      1      -0.040448  -0.002430   0.020871   0.019133  -0.087367   0.002369
      2      -0.004545  -0.004968   0.007047  -0.091686  -0.018285   0.000591
      3      -0.005208   0.017049  -0.003207   0.000017  -0.000428   0.010853
      4      -0.016362  -0.018500  -0.000778  -0.000073   0.001651   0.060312
      5      -0.003116  -0.004782   0.000012   0.000352   0.000368   0.011981
      6       0.153150  -0.525440   0.329505   0.344653  -0.073915  -0.003724
      7       0.410719   0.066725  -0.351520  -0.382145   0.071211  -0.001561
      8       0.171555   0.450458   0.484786   0.480724  -0.121491   0.000117
      9       0.143827  -0.567825   0.269988  -0.284030  -0.059285  -0.003747
     10       0.449135   0.229391  -0.122128   0.151106   0.015241  -0.001468
     11      -0.008476  -0.329204  -0.616980   0.625332   0.146699  -0.000350
     12       0.722732   0.003893   0.029895  -0.001370   0.119083   0.002434
     13      -0.115606   0.018977   0.241341   0.005605   0.943805  -0.014553
     14      -0.064136   0.003680   0.048729  -0.025714   0.190358  -0.003166
     15      -0.095641  -0.158632  -0.002902   0.000357   0.005612  -0.146234
     16      -0.002589   0.007493  -0.004045  -0.001380  -0.015427  -0.967930
     17       0.004670   0.010167  -0.000689   0.006567  -0.003523  -0.193803


-----------
IR SPECTRUM
-----------

 Mode    freq (cm**-1)   T**2         TX         TY         TZ
-------------------------------------------------------------------
   6:       333.64  117.025310  (  0.575603  -2.203785  10.575317)
   7:      1037.66  103.992957  (-10.120957  -1.212416   0.298733)
   8:      1074.49   17.299466  ( -4.056206  -0.919688   0.028830)
   9:      1135.72    0.301933  (  0.032678  -0.111829   0.536991)
  10:      1333.16   23.268010  (  4.796842   0.482706  -0.159083)
  11:      1421.10    1.225639  ( -0.056908   0.224056  -1.082682)
  12:      1430.06    6.429548  ( -2.529108   0.092609   0.156786)
  13:      1450.79    7.746216  (  2.226929   1.654364   0.223788)
  14:      2880.98   75.636424  ( -8.578748   1.227067   0.731988)
  15:      2927.30   87.629580  ( -0.507499   1.905678  -9.150979)
  16:      3033.51   30.206550  ( -0.045639  -5.380550  -1.119888)
  17:      3699.35   16.998290  ( -1.730272  -3.681228  -0.673058)

The first frequency considered to be a vibration is 6
The total number of vibrations considered is 12


--------------------------
THERMOCHEMISTRY AT 298.15K
--------------------------

Temperature         ... 298.15 K
Pressure            ... 1.00 atm
Total Mass          ... 32.04 AMU

Throughout the following assumptions are being made:
  (1) The electronic state is orbitally nondegenerate
  (2) There are no thermally accessible electronically excited states
  (3) Hindered rotations indicated by low frequency modes are not
      treated as such but are treated as vibrations and this may
      cause some error
  (4) All equations used are the standard statistical mechanics
      equations for an ideal gas
  (5) All vibrations are strictly harmonic

freq.     333.64  E(vib)   ...       0.24 
freq.    1037.66  E(vib)   ...       0.02 
freq.    1074.49  E(vib)   ...       0.02 
freq.    1135.72  E(vib)   ...       0.01 
freq.    1333.16  E(vib)   ...       0.01 
freq.    1421.10  E(vib)   ...       0.00 
freq.    1430.06  E(vib)   ...       0.00 
freq.    1450.79  E(vib)   ...       0.00 
freq.    2880.98  E(vib)   ...       0.00 
freq.    2927.30  E(vib)   ...       0.00 
freq.    3033.51  E(vib)   ...       0.00 
freq.    3699.35  E(vib)   ...       0.00 

------------
INNER ENERGY
------------

The inner energy is: U= E(el) + E(ZPE) + E(vib) + E(rot) + E(trans)
    E(el)   - is the total energy from the electronic structure calculation
              = E(kin-el) + E(nuc-el) + E(el-el) + E(nuc-nuc)
    E(ZPE)  - the the zero temperature vibrational energy from the frequency calculation
    E(vib)  - the the finite temperature correction to E(ZPE) due to population
              of excited vibrational states
    E(rot)  - is the rotational thermal energy
    E(trans)- is the translational thermal energy

Summary of contributions to the inner energy U:
Electronic energy                ...   -115.59614532 Eh
Zero point energy                ...      0.04956784 Eh      31.10 kcal/mol
Thermal vibrational correction   ...      0.00049005 Eh       0.31 kcal/mol
Thermal rotational correction    ...      0.00141627 Eh       0.89 kcal/mol
Thermal translational correction ...      0.00141627 Eh       0.89 kcal/mol
-----------------------------------------------------------------------
Total thermal energy                   -115.54325488 Eh


Summary of corrections to the electronic energy:
(perhaps to be used in another calculation)
Total thermal correction                  0.00332260 Eh       2.08 kcal/mol
Non-thermal (ZPE) correction              0.04956784 Eh      31.10 kcal/mol
-----------------------------------------------------------------------
Total correction                          0.05289044 Eh      33.19 kcal/mol


--------
ENTHALPY
--------

The enthalpy is H = U + kB*T
                kB is Boltzmann's constant
Total free energy                 ...   -115.54325488 Eh 
Thermal Enthalpy correction       ...      0.00094421 Eh       0.59 kcal/mol
-----------------------------------------------------------------------
Total Enthalpy                    ...   -115.54231068 Eh


Note: Only C1 symmetry has been detected, increase convergence thresholds 
      if your molecule has a higher symmetry. Symmetry factor of 1.0 is   
      used for the rotational entropy correction. 
 

Note: Rotational entropy computed according to Herzberg 
Infrared and Raman Spectra, Chapter V,1, Van Nostrand Reinhold, 1945 
Point Group:  C1, Symmetry Number:   1  
Rotational constants in cm-1:     4.154547     0.820336     0.790830 

Vibrational entropy computed according to the QRRHO of S. Grimme
Chem.Eur.J. 2012 18 9955


-------
ENTROPY
-------

The entropy contributions are T*S = T*(S(el)+S(vib)+S(rot)+S(trans))
     S(el)   - electronic entropy
     S(vib)  - vibrational entropy
     S(rot)  - rotational entropy
     S(trans)- translational entropy
The entropies will be listed as mutliplied by the temperature to get
units of energy

Electronic entropy                ...      0.00000000 Eh      0.00 kcal/mol
Vibrational entropy               ...      0.00072213 Eh      0.45 kcal/mol
Rotational entropy                ...      0.00904274 Eh      5.67 kcal/mol
Translational entropy             ...      0.01725935 Eh     10.83 kcal/mol
-----------------------------------------------------------------------
Final entropy term                ...      0.02702422 Eh     16.96 kcal/mol

In case the symmetry of your molecule has not been determined correctly
or in case you have a reason to use a different symmetry number we print 
out the resulting rotational entropy values for sn=1,12 :
 --------------------------------------------------------
|  sn= 1 | S(rot)=       0.00904274 Eh      5.67 kcal/mol|
|  sn= 2 | S(rot)=       0.00838828 Eh      5.26 kcal/mol|
|  sn= 3 | S(rot)=       0.00800545 Eh      5.02 kcal/mol|
|  sn= 4 | S(rot)=       0.00773382 Eh      4.85 kcal/mol|
|  sn= 5 | S(rot)=       0.00752314 Eh      4.72 kcal/mol|
|  sn= 6 | S(rot)=       0.00735099 Eh      4.61 kcal/mol|
|  sn= 7 | S(rot)=       0.00720545 Eh      4.52 kcal/mol|
|  sn= 8 | S(rot)=       0.00707937 Eh      4.44 kcal/mol|
|  sn= 9 | S(rot)=       0.00696816 Eh      4.37 kcal/mol|
|  sn=10 | S(rot)=       0.00686868 Eh      4.31 kcal/mol|
|  sn=11 | S(rot)=       0.00677869 Eh      4.25 kcal/mol|
|  sn=12 | S(rot)=       0.00669654 Eh      4.20 kcal/mol|
 --------------------------------------------------------


-------------------
GIBBS FREE ENERGY
-------------------

The Gibbs free energy is G = H - T*S

Total enthalpy                    ...   -115.54231068 Eh 
Total entropy correction          ...     -0.02702422 Eh    -16.96 kcal/mol
-----------------------------------------------------------------------
Final Gibbs free energy         ...   -115.56933490 Eh

For completeness - the Gibbs free energy minus the electronic energy
G-E(el)                           ...      0.02681043 Eh     16.82 kcal/mol


Timings for individual modules:

Sum of individual times         ...       32.098 sec (=   0.535 min)
GTO integral calculation        ...        3.826 sec (=   0.064 min)  11.9 %
SCF iterations                  ...       14.488 sec (=   0.241 min)  45.1 %
SCF Gradient evaluation         ...        5.773 sec (=   0.096 min)  18.0 %
Geometry relaxation             ...        0.729 sec (=   0.012 min)   2.3 %
Analytical frequency calculation...        7.282 sec (=   0.121 min)  22.7 %
                             ****ORCA TERMINATED NORMALLY****
TOTAL RUN TIME: 0 days 0 hours 0 minutes 33 seconds 566 msec
