
                                 *****************
                                 * O   R   C   A *
                                 *****************

           --- An Ab Initio, DFT and Semiempirical electronic structure package ---

                  #######################################################
                  #                        -***-                        #
                  #          Department of theory and spectroscopy      #
                  #               Directorship: Frank Neese             #
                  #        Max Planck Institute fuer Kohlenforschung    #
                  #                Kaiser Wilhelm Platz 1               #
                  #                 D-45470 Muelheim/Ruhr               #
                  #                      Germany                        #
                  #                                                     #
                  #                  All rights reserved                #
                  #                        -***-                        #
                  #######################################################


                         Program Version 4.2.1 -  RELEASE  -


 With contributions from (in alphabetic order):
   Daniel Aravena         : Magnetic Suceptibility
   Michael Atanasov       : Ab Initio Ligand Field Theory (pilot matlab implementation)
   Alexander A. Auer      : GIAO ZORA, VPT2
   Ute Becker             : Parallelization
   Giovanni Bistoni       : ED, misc. LED, open-shell LED, HFLD
   Martin Brehm           : Molecular dynamics
   Dmytro Bykov           : SCF Hessian
   Vijay G. Chilkuri      : MRCI spin determinant printing, contributions to CSF-ICE
   Dipayan Datta          : RHF DLPNO-CCSD density
   Achintya Kumar Dutta   : EOM-CC, STEOM-CC
   Dmitry Ganyushin       : Spin-Orbit,Spin-Spin,Magnetic field MRCI
   Miquel Garcia          : C-PCM Hessian, Gaussian charge scheme
   Yang Guo               : DLPNO-NEVPT2, CIM, IAO-localization
   Andreas Hansen         : Spin unrestricted coupled pair/coupled cluster methods
   Benjamin Helmich-Paris : CASSCF linear response (MC-RPA)
   Lee Huntington         : MR-EOM, pCC
   Robert Izsak           : Overlap fitted RIJCOSX, COSX-SCS-MP3, EOM
   Christian Kollmar      : KDIIS, OOCD, Brueckner-CCSD(T), CCSD density
   Simone Kossmann        : Meta GGA functionals, TD-DFT gradient, OOMP2, MP2 Hessian
   Martin Krupicka        : AUTO-CI
   Lucas Lang             : DCDCAS
   Dagmar Lenk            : GEPOL surface, SMD
   Dimitrios Liakos       : Extrapolation schemes; Compound Job, initial MDCI parallelization
   Dimitrios Manganas     : Further ROCIS development; embedding schemes
   Dimitrios Pantazis     : SARC Basis sets
   Taras Petrenko         : DFT Hessian,TD-DFT gradient, ASA, ECA, R-Raman, ABS, FL, XAS/XES, NRVS
   Peter Pinski           : DLPNO-MP2, DLPNO-MP2 Gradient
   Christoph Reimann      : Effective Core Potentials
   Marius Retegan         : Local ZFS, SOC
   Christoph Riplinger    : Optimizer, TS searches, QM/MM, DLPNO-CCSD(T), (RO)-DLPNO pert. Triples
   Tobias Risthaus        : Range-separated hybrids, TD-DFT gradient, RPA, STAB
   Michael Roemelt        : Original ROCIS implementation
   Masaaki Saitow         : Open-shell DLPNO-CCSD energy and density
   Barbara Sandhoefer     : DKH picture change effects
   Avijit Sen             : IP-ROCIS
   Kantharuban Sivalingam : CASSCF convergence, NEVPT2, FIC-MRCI
   Bernardo de Souza      : ESD, SOC TD-DFT
   Georgi Stoychev        : AutoAux, RI-MP2 NMR
   Willem Van den Heuvel  : Paramagnetic NMR
   Boris Wezisla          : Elementary symmetry handling
   Frank Wennmohs         : Technical directorship


 We gratefully acknowledge several colleagues who have allowed us to
 interface, adapt or use parts of their codes:
   Stefan Grimme, W. Hujo, H. Kruse,             : VdW corrections, initial TS optimization,
                  C. Bannwarth                     DFT functionals, gCP, sTDA/sTD-DF
   Ed Valeev, F. Pavosevic, A. Kumar             : LibInt (2-el integral package), F12 methods
   Garnet Chan, S. Sharma, J. Yang, R. Olivares  : DMRG
   Ulf Ekstrom                                   : XCFun DFT Library
   Mihaly Kallay                                 : mrcc  (arbitrary order and MRCC methods)
   Andreas Klamt, Michael Diedenhofen            : otool_cosmo (COSMO solvation model)
   Jiri Pittner, Ondrej Demel                    : Mk-CCSD
   Frank Weinhold                                : gennbo (NPA and NBO analysis)
   Christopher J. Cramer and Donald G. Truhlar   : smd solvation model
   Lars Goerigk                                  : TD-DFT with DH, B97 family of functionals
   V. Asgeirsson, H. Jonsson                     : NEB implementation
   FAccTs GmbH                                   : IRC, NEB, NEB-TS, Multilevel, MM, QM/MM, CI optimization
   S Lehtola, MJT Oliveira, MAL Marques          : LibXC Library


 Your calculation uses the libint2 library for the computation of 2-el integrals
 For citations please refer to: http://libint.valeyev.net

 Your ORCA version has been built with support for libXC version: 4.2.3
 For citations please refer to: https://tddft.org/programs/libxc/

 This ORCA versions uses:
   CBLAS   interface :  Fast vector & matrix operations
   LAPACKE interface :  Fast linear algebra routines
   SCALAPACK package :  Parallel linear algebra routines


Your calculation utilizes the atom-pairwise dispersion correction
with the Becke-Johnson damping scheme (D3BJ)
Cite in your paper:
S.Grimme, S.Ehrlich, L.Goerigk, J Comput Chem, (2011), 32, 1456–1465 
S.Grimme, J.Antony, S.Ehrlich and H.Krieg, J.Chem.Phys., 132, (2010), 154104 
   

Your calculation employs the composite approach B97-3c by Grimme and coworkers.
For the correct reference, please check the publication list of the Grimme group:
http://www.thch.uni-bonn.de/tc/index.php?section=publikationen&subsection=grimme#2017
   

XCFun DFT library Copyright 2009-2010 Ulf Ekstrom and contributors.
See http://admol.org/xcfun for more information. This is free soft-
ware; see the source code for copying conditions. There is ABSOLUTELY
NO WARRANTY; not even for MERCHANTABILITY or FITNESS FOR A PARTICULAR
PURPOSE. For details see the documentation. Scientific users of this 
library should cite U. Ekstrom, L. Visscher, R. Bast, A. J. Thorvald-
sen and K. Ruud; J.Chem.Theor.Comp. 2010, DOI: 10.1021/ct100117s
XCFun Version 0.99 
----- Orbital basis set information -----
Your calculation utilizes the basis: def2-mTZVP
----- AuxJ basis set information -----
Your calculation utilizes the basis: def2-mTZVP/J
================================================================================
                                        WARNINGS
                       Please study these warnings very carefully!
================================================================================


WARNING: your system is open-shell and RHF/RKS was chosen
  ===> : WILL SWITCH to UHF/UKS


WARNING: Geometry Optimization
  ===> : Switching off AutoStart
         For restart on a previous wavefunction, please use MOREAD

INFO   : the flag for use of LIBINT has been found!

================================================================================
                                       INPUT FILE
================================================================================
NAME = Mn2F6.inp
|  1> ! B97-3c Opt Freq TightOpt TightSCF
|  2> 
|  3> %pal
|  4>  nprocs 4
|  5> end
|  6> 
|  7> *xyz 0 5
|  8> F       -5.1042271947      2.9013017714     -0.0000000000                 
|  9> Mn      -4.0268228867      1.3596705929     -0.0000000000                 
| 10> Mn      -1.2470758495      0.8892513226     -0.0000000000                 
| 11> F       -5.5514941414      0.2583961274     -0.0000000000                 
| 12> F       -2.4291918123      2.3521208854     -0.0000000000                 
| 13> F       -2.8447084913     -0.1032021214     -0.0000000000                 
| 14> F        0.2775901367      1.9905315961     -0.0000000000                 
| 15> F       -0.1696661468     -0.6523757700     -0.0000000000                 
| 16> *
| 17> 
| 18>                          ****END OF INPUT****
================================================================================

                       *****************************
                       * Geometry Optimization Run *
                       *****************************

Geometry optimization settings:
Update method            Update   .... BFGS
Choice of coordinates    CoordSys .... Z-matrix Internals
Initial Hessian          InHess   .... Almoef's Model

Convergence Tolerances:
Energy Change            TolE     ....  1.0000e-06 Eh
Max. Gradient            TolMAXG  ....  1.0000e-04 Eh/bohr
RMS Gradient             TolRMSG  ....  3.0000e-05 Eh/bohr
Max. Displacement        TolMAXD  ....  1.0000e-03 bohr
RMS Displacement         TolRMSD  ....  6.0000e-04 bohr
Strict Convergence                ....  False
------------------------------------------------------------------------------
                        ORCA OPTIMIZATION COORDINATE SETUP
------------------------------------------------------------------------------

The optimization will be done in new redundant internal coordinates
Making redundant internal coordinates   ...  (new redundants) done
Evaluating the initial hessian          ...  (Almloef) done
Evaluating the coordinates              ...  done
Calculating the B-matrix                .... done
Calculating the G-matrix                .... done
Diagonalizing the G-matrix              .... done
The first mode is                       ....   31
The number of degrees of freedom        ....   18

    -----------------------------------------------------------------
                    Redundant Internal Coordinates


    -----------------------------------------------------------------
         Definition                    Initial Value    Approx d2E/dq
    -----------------------------------------------------------------
      1. B(Mn  1,F   0)                  1.8808         0.867049   
      2. B(Mn  2,Mn  1)                  2.8193         0.335489   
      3. B(F   3,Mn  1)                  1.8808         0.867048   
      4. B(F   4,Mn  2)                  1.8808         0.867084   
      5. B(F   4,Mn  1)                  1.8808         0.867087   
      6. B(F   5,Mn  2)                  1.8808         0.867077   
      7. B(F   5,Mn  1)                  1.8808         0.867080   
      8. B(F   6,Mn  2)                  1.8808         0.867051   
      9. B(F   7,Mn  2)                  1.8808         0.867050   
     10. A(F   3,Mn  1,F   5)           93.1002         0.614343   
     11. A(F   4,Mn  1,F   5)           82.9077         0.614349   
     12. A(Mn  2,Mn  1,F   5)           41.4539         0.565272   
     13. A(F   0,Mn  1,Mn  2)          134.5539         0.565268   
     14. A(Mn  2,Mn  1,F   3)          134.5541         0.565268   
     15. A(Mn  2,Mn  1,F   4)           41.4538         0.565273   
     16. A(F   0,Mn  1,F   3)           90.8920         0.614339   
     17. A(F   0,Mn  1,F   4)           93.1001         0.614344   
     18. A(Mn  1,Mn  2,F   6)          134.5539         0.565268   
     19. A(Mn  1,Mn  2,F   4)           41.4538         0.565272   
     20. A(F   4,Mn  2,F   5)           82.9077         0.614348   
     21. A(Mn  1,Mn  2,F   5)           41.4539         0.565271   
     22. A(F   6,Mn  2,F   7)           90.8921         0.614340   
     23. A(F   4,Mn  2,F   6)           93.1001         0.614344   
     24. A(F   5,Mn  2,F   7)           93.1002         0.614343   
     25. A(Mn  1,Mn  2,F   7)          134.5541         0.565268   
     26. A(Mn  1,F   4,Mn  2)           97.0924         0.614349   
     27. A(Mn  1,F   5,Mn  2)           97.0922         0.614347   
     28. D(F   4,Mn  2,Mn  1,F   3)    180.0000         0.001574   
     29. D(F   6,Mn  2,Mn  1,F   3)    180.0000         0.001574   
     30. D(F   5,Mn  2,Mn  1,F   0)    180.0000         0.001574   
     31. D(F   5,Mn  2,Mn  1,F   3)      0.0000         0.001574   
     32. D(F   5,Mn  2,Mn  1,F   4)    180.0000         0.001574   
     33. D(F   4,Mn  2,Mn  1,F   5)    180.0000         0.001574   
     34. D(F   6,Mn  2,Mn  1,F   5)    180.0000         0.001574   
     35. D(F   6,Mn  2,Mn  1,F   4)      0.0000         0.001574   
     36. D(F   4,Mn  2,Mn  1,F   0)      0.0000         0.001574   
     37. D(F   7,Mn  2,Mn  1,F   0)    180.0000         0.001574   
     38. D(F   7,Mn  2,Mn  1,F   3)      0.0000         0.001574   
     39. D(F   7,Mn  2,Mn  1,F   4)    180.0000         0.001574   
     40. D(F   7,Mn  2,Mn  1,F   5)      0.0000         0.001574   
     41. D(F   6,Mn  2,Mn  1,F   0)      0.0000         0.001574   
     42. D(Mn  2,F   4,Mn  1,F   0)    180.0000         0.005245   
     43. D(Mn  1,F   4,Mn  2,F   6)    180.0000         0.005245   
     44. D(Mn  1,F   4,Mn  2,F   5)      0.0000         0.005245   
     45. D(Mn  2,F   4,Mn  1,F   5)      0.0000         0.005245   
     46. D(Mn  1,F   5,Mn  2,F   7)    180.0000         0.005245   
     47. D(Mn  1,F   5,Mn  2,F   4)      0.0000         0.005245   
     48. D(Mn  2,F   5,Mn  1,F   4)      0.0000         0.005245   
     49. D(Mn  2,F   5,Mn  1,F   3)    180.0000         0.005245   
    -----------------------------------------------------------------

Number of atoms                         .... 8
Number of degrees of freedom            .... 49

         *************************************************************
         *                GEOMETRY OPTIMIZATION CYCLE   1            *
         *************************************************************
---------------------------------
CARTESIAN COORDINATES (ANGSTROEM)
---------------------------------
  F     -5.104227    2.901302   -0.000000
  Mn    -4.026823    1.359671   -0.000000
  Mn    -1.247076    0.889251   -0.000000
  F     -5.551494    0.258396   -0.000000
  F     -2.429192    2.352121   -0.000000
  F     -2.844708   -0.103202   -0.000000
  F      0.277590    1.990532   -0.000000
  F     -0.169666   -0.652376   -0.000000

----------------------------
CARTESIAN COORDINATES (A.U.)
----------------------------
  NO LB      ZA    FRAG     MASS         X           Y           Z
   0 F     9.0000    0    18.998   -9.645592    5.482666   -0.000000
   1 Mn   25.0000    0    54.940   -7.609592    2.569405   -0.000000
   2 Mn   25.0000    0    54.940   -2.356632    1.680441   -0.000000
   3 F     9.0000    0    18.998  -10.490804    0.488298   -0.000000
   4 F     9.0000    0    18.998   -4.590507    4.444864   -0.000000
   5 F     9.0000    0    18.998   -5.375720   -0.195024   -0.000000
   6 F     9.0000    0    18.998    0.524569    3.761560   -0.000000
   7 F     9.0000    0    18.998   -0.320623   -1.232812   -0.000000

--------------------------------
INTERNAL COORDINATES (ANGSTROEM)
--------------------------------
 F      0   0   0     0.000000000000     0.00000000     0.00000000
 Mn     1   0   0     1.880804810027     0.00000000     0.00000000
 Mn     2   1   0     2.819270806555   134.55387264     0.00000000
 F      2   1   3     1.880805115707    90.89203302   180.00000085
 F      2   1   3     1.880793086167    93.10005907     0.00000000
 F      2   1   3     1.880795316364   176.00776312     0.00000000
 F      3   2   1     1.880804245602   134.55385694     0.00000000
 F      3   2   1     1.880804551279   134.55407864   180.00000000

---------------------------
INTERNAL COORDINATES (A.U.)
---------------------------
 F      0   0   0     0.000000000000     0.00000000     0.00000000
 Mn     1   0   0     3.554206002313     0.00000000     0.00000000
 Mn     2   1   0     5.327649721748   134.55387264     0.00000000
 F      2   1   3     3.554206579965    90.89203302   180.00000085
 F      2   1   3     3.554183847427    93.10005907     0.00000000
 F      2   1   3     3.554188061889   176.00776312     0.00000000
 F      3   2   1     3.554204935705   134.55385694     0.00000000
 F      3   2   1     3.554205513349   134.55407864   180.00000000

---------------------
BASIS SET INFORMATION
---------------------
There are 2 groups of distinct atoms

 Group   1 Type F   : 11s6p1d contracted to 5s3p1d pattern {62111/411/1}
 Group   2 Type Mn  : 17s11p6d contracted to 6s4p3d pattern {842111/6311/411}

Atom   0F    basis set group =>   1
Atom   1Mn   basis set group =>   2
Atom   2Mn   basis set group =>   2
Atom   3F    basis set group =>   1
Atom   4F    basis set group =>   1
Atom   5F    basis set group =>   1
Atom   6F    basis set group =>   1
Atom   7F    basis set group =>   1
---------------------------------
AUXILIARY/J BASIS SET INFORMATION
---------------------------------
There are 2 groups of distinct atoms

 Group   1 Type F   : 8s3p4d contracted to 6s3p4d pattern {311111/111/1111}
 Group   2 Type Mn  : 19s5p5d3f3g contracted to 8s5p5d2f3g pattern {121111111/11111/11111/21/111}

Atom   0F    basis set group =>   1
Atom   1Mn   basis set group =>   2
Atom   2Mn   basis set group =>   2
Atom   3F    basis set group =>   1
Atom   4F    basis set group =>   1
Atom   5F    basis set group =>   1
Atom   6F    basis set group =>   1
Atom   7F    basis set group =>   1


           ************************************************************
           *        Program running with 4 parallel MPI-processes     *
           *              working on a common directory               *
           ************************************************************
------------------------------------------------------------------------------
                           ORCA GTO INTEGRAL CALCULATION
                           -- RI-GTO INTEGRALS CHOSEN --
------------------------------------------------------------------------------

                         BASIS SET STATISTICS AND STARTUP INFO

Gaussian basis set:
 # of primitive gaussian shells          ...  176
 # of primitive gaussian functions       ...  364
 # of contracted shells                  ...   80
 # of contracted basis functions         ...  180
 Highest angular momentum                ...    2
 Maximum contraction depth               ...    8
Auxiliary gaussian basis set:
 # of primitive gaussian shells          ...  160
 # of primitive gaussian functions       ...  436
 # of contracted shells                  ...  124
 # of contracted aux-basis functions     ...  388
 Highest angular momentum                ...    4
 Maximum contraction depth               ...   12
Ratio of auxiliary to basis functions    ...  2.16
Integral package used                  ... LIBINT
 One Electron integrals                  ... done
 Ordering auxiliary basis shells         ... done
 Integral threshhold             Thresh  ...  2.500e-11
 Primitive cut-off               TCut    ...  2.500e-12
 Pre-screening matrix                    ... done
 Shell pair data                         ... 
 Ordering of the shell pairs             ... done (   0.000 sec) 2553 of 3240 pairs
 Determination of significant pairs      ... done (   0.000 sec)
 Creation of shell pair data             ... done (   0.000 sec)
 Storage of shell pair data              ... done (   0.020 sec)
 Shell pair data done in (   0.021 sec)
 Computing two index integrals           ... done
 Cholesky decomposition of the V-matrix  ... done


Timings:
 Total evaluation time                   ...   0.183 sec (  0.003 min)
 One electron matrix time                ...   0.012 sec (  0.000 min) =  6.7%
 Schwartz matrix evaluation time         ...   0.112 sec (  0.002 min) = 61.1%
 Two index repulsion integral time       ...   0.003 sec (  0.000 min) =  1.4%
 Cholesky decomposition of V             ...   0.016 sec (  0.000 min) =  8.9%
 Three index repulsion integral time     ...   0.000 sec (  0.000 min) =  0.0%



           ************************************************************
           *        Program running with 4 parallel MPI-processes     *
           *              working on a common directory               *
           ************************************************************
-------------------------------------------------------------------------------
                                 ORCA SCF
-------------------------------------------------------------------------------

------------
SCF SETTINGS
------------
Hamiltonian:
 Density Functional     Method          .... DFT(GTOs)
 Exchange Functional    Exchange        .... B973C
 Correlation Functional Correlation     .... B973C
 Gradients option       PostSCFGGA      .... off
   Density functional embedding theory  .... OFF
 RI-approximation to the Coulomb term is turned on
   Number of auxiliary basis functions  .... 388


General Settings:
 Integral files         IntName         .... Mn2F6
 Hartree-Fock type      HFTyp           .... UHF
 Total Charge           Charge          ....    0
 Multiplicity           Mult            ....    5
 Number of Electrons    NEL             ....  104
 Basis Dimension        Dim             ....  180
 Nuclear Repulsion      ENuc            ....    920.6204781698 Eh

Convergence Acceleration:
 DIIS                   CNVDIIS         .... on
   Start iteration      DIISMaxIt       ....    12
   Startup error        DIISStart       ....  0.200000
   # of expansion vecs  DIISMaxEq       ....     5
   Bias factor          DIISBfac        ....   1.050
   Max. coefficient     DIISMaxC        ....  10.000
 Newton-Raphson         CNVNR           .... off
 SOSCF                  CNVSOSCF        .... off
 Level Shifting         CNVShift        .... on
   Level shift para.    LevelShift      ....    0.2500
   Turn off err/grad.   ShiftErr        ....    0.0010
 Zerner damping         CNVZerner       .... off
 Static damping         CNVDamp         .... on
   Fraction old density DampFac         ....    0.7000
   Max. Damping (<1)    DampMax         ....    0.9800
   Min. Damping (>=0)   DampMin         ....    0.0000
   Turn off err/grad.   DampErr         ....    0.1000
 Fernandez-Rico         CNVRico         .... off

SCF Procedure:
 Maximum # iterations   MaxIter         ....   125
 SCF integral mode      SCFMode         .... Direct
   Integral package                     .... LIBINT
 Reset frequency        DirectResetFreq ....    20
 Integral Threshold     Thresh          ....  2.500e-11 Eh
 Primitive CutOff       TCut            ....  2.500e-12 Eh

Convergence Tolerance:
 Convergence Check Mode ConvCheckMode   .... Total+1el-Energy
 Convergence forced     ConvForced      .... 0
 Energy Change          TolE            ....  1.000e-08 Eh
 1-El. energy change                    ....  1.000e-05 Eh
 DIIS Error             TolErr          ....  5.000e-07


Diagonalization of the overlap matrix:
Smallest eigenvalue                        ... 4.026e-03
Time for diagonalization                   ...    0.009 sec
Threshold for overlap eigenvalues          ... 1.000e-08
Number of eigenvalues below threshold      ... 0
Time for construction of square roots      ...    0.006 sec
Total time needed                          ...    0.015 sec

--------------------------------
INITIAL GUESS: MINIMAL BASIS EHT
--------------------------------
The minimal basis has 66 functions
EHT matrix was diagonalized
Basis set overlap was calculated now projecting the orbitals
Using GuessMode=FMatrix for the initial guess
C*T matrix was formed
Effective Fockian was calculated
Effective Fockian was diagonalized
Initial density was built
                      ------------------
                      INITIAL GUESS DONE
                      ------------------
-------------------
DFT GRID GENERATION
-------------------

General Integration Accuracy     IntAcc      ...  4.340
Radial Grid Type                 RadialGrid  ... Gauss-Chebyshev
Angular Grid (max. acc.)         AngularGrid ... Lebedev-194
Angular grid pruning method      GridPruning ... 3 (G Style)
Weight generation scheme         WeightScheme... Becke
Basis function cutoff            BFCut       ...    1.0000e-11
Integration weight cutoff        WCut        ...    1.0000e-14
Grids for H and He will be reduced by one unit

# of grid points (after initial pruning)     ...  31320 (   0.0 sec)
# of grid points (after weights+screening)   ...  30298 (   0.0 sec)
nearest neighbour list constructed           ...    0.0 sec
Grid point re-assignment to atoms done       ...    0.0 sec
Grid point division into batches done        ...    0.1 sec
Reduced shell lists constructed in    0.1 sec

Total number of grid points                  ...    30298
Total number of batches                      ...      478
Average number of points per batch           ...       63
Average number of grid points per atom       ...     3787
Average number of shells per batch           ...    40.36 (50.45%)
Average number of basis functions per batch  ...    98.88 (54.93%)
Average number of large shells per batch     ...    30.77 (76.23%)
Average number of large basis fcns per batch ...    75.86 (76.72%)
Maximum spatial batch extension              ...  23.03, 22.48, 36.32 au
Average spatial batch extension              ...   0.77,  0.76,  0.94 au

Time for grid setup =    0.162 sec

--------------
SCF ITERATIONS
--------------
ITER       Energy         Delta-E        Max-DP      RMS-DP      [F,P]     Damp
               ***  Starting incremental Fock matrix formation  ***
  0  -2896.6815371459   0.000000000000 0.64032933  0.00812254  0.5499131 0.7000
  1  -2896.8340677599  -0.152530613934 1.40256533  0.01163546  0.4456197 0.7000
  2  -2898.3638992376  -1.529831477753 0.56174936  0.00452332  0.3045155 0.7000
  3  -2899.1673689787  -0.803469741135 0.39429263  0.00351776  0.2295694 0.7000
                               ***Turning on DIIS***
  4  -2899.8269742217  -0.659605242930 0.27692096  0.00254331  0.1184998 0.7000
  5  -2900.2790975238  -0.452123302116 0.64439189  0.00608991  0.0852164 0.0000
  6  -2901.3052877451  -1.026190221347 0.02288804  0.00057584  0.0954051 0.0000
  7  -2901.3462280516  -0.040940306458 0.01529045  0.00035411  0.0254880 0.0000
  8  -2901.3544991866  -0.008271134990 0.01641376  0.00032516  0.0168571 0.0000
  9  -2901.3628724268  -0.008373240250 0.01667431  0.00033800  0.0057885 0.0000
 10  -2901.3713098979  -0.008437471048 0.01592318  0.00033667  0.0064675 0.0000
 11  -2901.3793152238  -0.008005325929 0.01391958  0.00031456  0.0065357 0.0000
 12  -2901.3862248956  -0.006909671797 0.01206091  0.00028515  0.0061169 0.0000
 13  -2901.3916854813  -0.005460585719 0.01341374  0.00026994  0.0064931 0.0000
 14  -2901.3956998873  -0.004014405988 0.01547487  0.00028416  0.0127157 0.0000
 15  -2901.3978189000  -0.002119012725 0.01457782  0.00025873  0.0223572 0.0000
 16  -2901.3984248847  -0.000605984676 0.01359295  0.00023674  0.0278714 0.0000
 17  -2901.3977707684   0.000654116269 0.01103585  0.00019564  0.0334943 0.0000
 18  -2901.3972240377   0.000546730698 0.00853838  0.00016028  0.0351569 0.0000
 19  -2901.3965238123   0.000700225450 0.00864629  0.00015817  0.0362989 0.0000
               *** Restarting incremental Fock matrix formation ***
                                   *** Resetting DIIS ***
 20  -2901.3960937527   0.000430059568 0.03066626  0.00052505  0.0421031 0.0000
 21  -2901.3807048589   0.015388893830 0.01594840  0.00025562  0.0822472 0.0000
 22  -2901.3997820194  -0.019077160472 0.00623805  0.00013170  0.0345678 0.0000
 23  -2901.4041717620  -0.004389742659 0.00307763  0.00006799  0.0134784 0.0000
 24  -2901.4048955278  -0.000723765748 0.00175032  0.00004647  0.0059018 0.0000
 25  -2901.4050893710  -0.000193843237 0.00153298  0.00003275  0.0027704 0.0000
 26  -2901.4051807501  -0.000091379092 0.00135480  0.00002461  0.0013976 0.0000
 27  -2901.4052315350  -0.000050784908 0.00119376  0.00002056  0.0010974 0.0000
 28  -2901.4052682471  -0.000036712135 0.00862496  0.00012974  0.0009439 0.0000
 29  -2901.4053375329  -0.000069285777 0.00034072  0.00000774  0.0025908 0.0000
 30  -2901.4053602699  -0.000022736950 0.00044821  0.00000676  0.0010254 0.0000
 31  -2901.4053653533  -0.000005083414 0.00179343  0.00002342  0.0005489 0.0000
 32  -2901.4053647746   0.000000578709 0.00059547  0.00000886  0.0008159 0.0000
 33  -2901.4053694402  -0.000004665636 0.00047155  0.00000618  0.0003183 0.0000
 34  -2901.4053708382  -0.000001398014 0.00049235  0.00000779  0.0001839 0.0000
 35  -2901.4053719323  -0.000001094042 0.00057781  0.00000839  0.0001253 0.0000
 36  -2901.4053728569  -0.000000924593 0.00009250  0.00000149  0.0001293 0.0000
 37  -2901.4053731118  -0.000000254940 0.00022537  0.00000351  0.0001178 0.0000
 38  -2901.4053735090  -0.000000397178 0.00045207  0.00000772  0.0001157 0.0000
 39  -2901.4053743633  -0.000000854327 0.00063096  0.00001120  0.0001081 0.0000
               *** Restarting incremental Fock matrix formation ***
                                   *** Resetting DIIS ***
 40  -2901.4053754137  -0.000001050384 0.00051410  0.00000864  0.0000988 0.0000
 41  -2901.4053748649   0.000000548835 0.00024191  0.00000367  0.0005658 0.0000
 42  -2901.4053763171  -0.000001452232 0.00011195  0.00000187  0.0001367 0.0000
 43  -2901.4053765575  -0.000000240389 0.00034299  0.00000595  0.0000878 0.0000
 44  -2901.4053770655  -0.000000508046 0.00046534  0.00000816  0.0000920 0.0000
 45  -2901.4053777253  -0.000000659794 0.00013737  0.00000166  0.0000760 0.0000
 46  -2901.4053778246  -0.000000099236 0.00056955  0.00001045  0.0001042 0.0000
 47  -2901.4053783714  -0.000000546865 0.00027198  0.00000443  0.0002023 0.0000
 48  -2901.4053782924   0.000000079021 0.00036556  0.00000605  0.0000708 0.0000
 49  -2901.4053786956  -0.000000403161 0.00011087  0.00000208  0.0000685 0.0000
 50  -2901.4053788334  -0.000000137839 0.00015890  0.00000268  0.0000752 0.0000
 51  -2901.4053790479  -0.000000214531 0.00023876  0.00000394  0.0000619 0.0000
 52  -2901.4053792586  -0.000000210692 0.00049224  0.00000824  0.0000886 0.0000
 53  -2901.4053797268  -0.000000468161 0.00002954  0.00000066  0.0000571 0.0000
 54  -2901.4053797329  -0.000000006134 0.00077485  0.00001380  0.0000651 0.0000
 55  -2901.4053803631  -0.000000630141 0.00013952  0.00000218  0.0000393 0.0000
 56  -2901.4053804222  -0.000000059119 0.00085815  0.00001497  0.0000979 0.0000
 57  -2901.4053808850  -0.000000462852 0.00044610  0.00000803  0.0000389 0.0000
 58  -2901.4053806551   0.000000229965 0.00047127  0.00000826  0.0000798 0.0000
 59  -2901.4053809063  -0.000000251265 0.00037942  0.00000693  0.0000385 0.0000
               *** Restarting incremental Fock matrix formation ***
                                   *** Resetting DIIS ***
 60  -2901.4053808441   0.000000062276 0.00033058  0.00000502  0.0001092 0.0000
 61  -2901.4053788628   0.000001981276 0.00020124  0.00000354  0.0007559 0.0000
 62  -2901.4053808768  -0.000002013983 0.00003828  0.00000090  0.0000977 0.0000
 63  -2901.4053809309  -0.000000054174 0.00005578  0.00000085  0.0000654 0.0000
 64  -2901.4053809543  -0.000000023399 0.00005600  0.00000071  0.0000319 0.0000
 65  -2901.4053809789  -0.000000024580 0.00004609  0.00000073  0.0000317 0.0000
 66  -2901.4053809944  -0.000000015455 0.00008391  0.00000138  0.0000152 0.0000
 67  -2901.4053810381  -0.000000043730 0.00003978  0.00000071  0.0000140 0.0000
 68  -2901.4053810737  -0.000000035572 0.00013458  0.00000241  0.0000134 0.0000
 69  -2901.4053810956  -0.000000021896 0.00005376  0.00000095  0.0000288 0.0000
 70  -2901.4053811005  -0.000000004929 0.00004687  0.00000073  0.0000192 0.0000
 71  -2901.4053811373  -0.000000036817 0.00005462  0.00000088  0.0000209 0.0000
 72  -2901.4053811481  -0.000000010808 0.00005618  0.00000100  0.0000109 0.0000
 73  -2901.4053811710  -0.000000022869 0.00003374  0.00000051  0.0000129 0.0000
 74  -2901.4053812257  -0.000000054749 0.00010400  0.00000183  0.0000138 0.0000
 75  -2901.4053812606  -0.000000034823 0.00003147  0.00000053  0.0000116 0.0000
 76  -2901.4053812797  -0.000000019096 0.00002982  0.00000047  0.0000151 0.0000
 77  -2901.4053812865  -0.000000006884 0.00003324  0.00000051  0.0000158 0.0000
 78  -2901.4053812670   0.000000019532 0.00003838  0.00000060  0.0000150 0.0000
 79  -2901.4053813187  -0.000000051731 0.00001277  0.00000023  0.0000119 0.0000
               *** Restarting incremental Fock matrix formation ***
                                   *** Resetting DIIS ***
 80  -2901.4053810666   0.000000252105 0.00003743  0.00000060  0.0000079 0.0000
 81  -2901.4053810543   0.000000012369 0.00001890  0.00000024  0.0000469 0.0000
 82  -2901.4053810860  -0.000000031705 0.00000829  0.00000015  0.0000069 0.0000
 83  -2901.4053810747   0.000000011237 0.00003585  0.00000062  0.0000061 0.0000
 84  -2901.4053811052  -0.000000030444 0.00002331  0.00000039  0.0000056 0.0000
 85  -2901.4053811124  -0.000000007256 0.00001225  0.00000017  0.0000063 0.0000
 86  -2901.4053811407  -0.000000028256 0.00007346  0.00000136  0.0000065 0.0000
 87  -2901.4053811399   0.000000000768 0.00005227  0.00000094  0.0000207 0.0000
 88  -2901.4053811445  -0.000000004550 0.00003380  0.00000059  0.0000061 0.0000
 89  -2901.4053811770  -0.000000032540 0.00000122  0.00000004  0.0000059 0.0000
 90  -2901.4053811759   0.000000001131 0.00002371  0.00000041  0.0000043 0.0000
 91  -2901.4053811875  -0.000000011607 0.00000691  0.00000010  0.0000045 0.0000
 92  -2901.4053811869   0.000000000545 0.00007319  0.00000131  0.0000047 0.0000
 93  -2901.4053811936  -0.000000006673 0.00002141  0.00000040  0.0000033 0.0000
 94  -2901.4053812218  -0.000000028152 0.00003650  0.00000064  0.0000046 0.0000
 95  -2901.4053812281  -0.000000006301 0.00001768  0.00000031  0.0000070 0.0000
 96  -2901.4053812467  -0.000000018605 0.00001143  0.00000019  0.0000036 0.0000
 97  -2901.4053812493  -0.000000002602 0.00001422  0.00000023  0.0000035 0.0000
 98  -2901.4053812686  -0.000000019335 0.00002560  0.00000043  0.0000048 0.0000
 99  -2901.4053812661   0.000000002497 0.00000713  0.00000011  0.0000029 0.0000
               *** Restarting incremental Fock matrix formation ***
                                   *** Resetting DIIS ***
100  -2901.4053810917   0.000000174426 0.00002628  0.00000036  0.0000064 0.0000
101  -2901.4053811278  -0.000000036097 0.00001452  0.00000024  0.0000464 0.0000
102  -2901.4053810990   0.000000028760 0.00000379  0.00000006  0.0000037 0.0000
103  -2901.4053810973   0.000000001706 0.00000378  0.00000006  0.0000034 0.0000
104  -2901.4053811083  -0.000000011020 0.00000680  0.00000011  0.0000022 0.0000
105  -2901.4053811107  -0.000000002393 0.00000256  0.00000004  0.0000027 0.0000
106  -2901.4053811215  -0.000000010737 0.00000346  0.00000006  0.0000016 0.0000
107  -2901.4053811174   0.000000004110 0.00001077  0.00000016  0.0000074 0.0000
108  -2901.4053811345  -0.000000017139 0.00000448  0.00000008  0.0000015 0.0000
109  -2901.4053811221   0.000000012358 0.00000721  0.00000012  0.0000017 0.0000
110  -2901.4053811307  -0.000000008551 0.00000068  0.00000001  0.0000016 0.0000
111  -2901.4053811350  -0.000000004267 0.00000121  0.00000002  0.0000019 0.0000
112  -2901.4053811383  -0.000000003379 0.00002071  0.00000037  0.0000013 0.0000
113  -2901.4053811167   0.000000021636 0.00001047  0.00000019  0.0000029 0.0000
114  -2901.4053811288  -0.000000012096 0.00000886  0.00000016  0.0000012 0.0000
115  -2901.4053811225   0.000000006296 0.00001067  0.00000019  0.0000010 0.0000
116  -2901.4053811294  -0.000000006854 0.00000542  0.00000009  0.0000020 0.0000
117  -2901.4053811234   0.000000005977 0.00000629  0.00000010  0.0000016 0.0000
118  -2901.4053811322  -0.000000008788 0.00002516  0.00000044  0.0000019 0.0000
                            ***DIIS convergence achieved***

               *****************************************************
               *                     SUCCESS                       *
               *           SCF CONVERGED AFTER 119 CYCLES          *
               *****************************************************

Setting up the final grid:

General Integration Accuracy     IntAcc      ...  4.670
Radial Grid Type                 RadialGrid  ... Gauss-Chebyshev
Angular Grid (max. acc.)         AngularGrid ... Lebedev-302
Angular grid pruning method      GridPruning ... 3 (G Style)
Weight generation scheme         WeightScheme... Becke
Basis function cutoff            BFCut       ...    1.0000e-11
Integration weight cutoff        WCut        ...    1.0000e-14
Grids for H and He will be reduced by one unit

# of grid points (after initial pruning)     ...  56960 (   0.0 sec)
# of grid points (after weights+screening)   ...  54854 (   0.0 sec)
nearest neighbour list constructed           ...    0.0 sec
Grid point re-assignment to atoms done       ...    0.0 sec
Grid point division into batches done        ...    0.3 sec
Reduced shell lists constructed in    0.4 sec

Total number of grid points                  ...    54854
Total number of batches                      ...      860
Average number of points per batch           ...       63
Average number of grid points per atom       ...     6857
Average number of shells per batch           ...    38.64 (48.30%)
Average number of basis functions per batch  ...    94.65 (52.58%)
Average number of large shells per batch     ...    29.23 (75.64%)
Average number of large basis fcns per batch ...    72.09 (76.17%)
Maximum spatial batch extension              ...  17.22, 17.65, 19.33 au
Average spatial batch extension              ...   0.63,  0.61,  0.76 au

Final grid set up in    0.4 sec
Final integration                            ... done (   0.3 sec)
Change in XC energy                          ...    -0.000230546
Integrated number of electrons               ...   103.999907745
Previous integrated no of electrons          ...   103.998525571

----------------
TOTAL SCF ENERGY
----------------

Total Energy       :        -2901.40561168 Eh          -78951.26050 eV

Components:
Nuclear Repulsion  :          920.62047817 Eh           25051.35680 eV
Electronic Energy  :        -3822.02608985 Eh         -104002.61730 eV
One Electron Energy:        -5846.05745669 Eh         -159079.31083 eV
Two Electron Energy:         2024.03136684 Eh           55076.69354 eV

Virial components:
Potential Energy   :        -5798.00540114 Eh         -157771.74793 eV
Kinetic Energy     :         2896.59978946 Eh           78820.48743 eV
Virial Ratio       :            2.00165913


DFT components:
N(Alpha)           :       53.999951175487 electrons
N(Beta)            :       49.999956569084 electrons
N(Total)           :      103.999907744571 electrons
E(XC)              :     -166.911589525505 Eh       
DFET-embed. en.    :        0.000000000000 Eh       

---------------
SCF CONVERGENCE
---------------

  Last Energy change         ...   -1.0218e-09  Tolerance :   1.0000e-08
  Last MAX-Density change    ...    4.4737e-06  Tolerance :   1.0000e-07
  Last RMS-Density change    ...    7.9766e-08  Tolerance :   5.0000e-09
  Last DIIS Error            ...    7.6228e-07  Tolerance :   5.0000e-07

             **** THE GBW FILE WAS UPDATED (Mn2F6.gbw) ****
             **** DENSITY FILE WAS UPDATED (Mn2F6.scfp) ****
             **** ENERGY FILE WAS UPDATED (Mn2F6.en.tmp) ****
----------------------
UHF SPIN CONTAMINATION
----------------------

Warning: in a DFT calculation there is little theoretical justification to 
         calculate <S**2> as in Hartree-Fock theory. We will do it anyways
         but you should keep in mind that the values have only limited relevance

Expectation value of <S**2>     :     7.943555
Ideal value S*(S+1) for S=2.0   :     6.000000
Deviation                       :     1.943555

             **** THE GBW FILE WAS UPDATED (Mn2F6.gbw) ****
             **** DENSITY FILE WAS UPDATED (Mn2F6.scfp) ****
----------------
ORBITAL ENERGIES
----------------
                 SPIN UP ORBITALS
  NO   OCC          E(Eh)            E(eV) 
   0   1.0000    -234.206834     -6373.0920 
   1   1.0000    -234.206829     -6373.0918 
   2   1.0000     -27.059370      -736.3229 
   3   1.0000     -27.059342      -736.3221 
   4   1.0000     -24.329818      -662.0480 
   5   1.0000     -24.329815      -662.0479 
   6   1.0000     -24.242919      -659.6834 
   7   1.0000     -24.242918      -659.6833 
   8   1.0000     -24.242902      -659.6829 
   9   1.0000     -24.242900      -659.6828 
  10   1.0000     -23.246125      -632.5592 
  11   1.0000     -23.246124      -632.5592 
  12   1.0000     -23.236317      -632.2923 
  13   1.0000     -23.236309      -632.2921 
  14   1.0000     -23.227546      -632.0537 
  15   1.0000     -23.227543      -632.0536 
  16   1.0000      -3.190666       -86.8224 
  17   1.0000      -3.190424       -86.8159 
  18   1.0000      -2.117728       -57.6263 
  19   1.0000      -2.117223       -57.6126 
  20   1.0000      -2.083808       -56.7033 
  21   1.0000      -2.082445       -56.6662 
  22   1.0000      -2.082247       -56.6608 
  23   1.0000      -2.080973       -56.6261 
  24   1.0000      -1.169259       -31.8171 
  25   1.0000      -1.158273       -31.5182 
  26   1.0000      -1.055995       -28.7351 
  27   1.0000      -1.055314       -28.7166 
  28   1.0000      -1.050916       -28.5969 
  29   1.0000      -1.050900       -28.5964 
  30   1.0000      -0.524363       -14.2687 
  31   1.0000      -0.523993       -14.2586 
  32   1.0000      -0.515693       -14.0327 
  33   1.0000      -0.486777       -13.2459 
  34   1.0000      -0.480884       -13.0855 
  35   1.0000      -0.467482       -12.7208 
  36   1.0000      -0.413705       -11.2575 
  37   1.0000      -0.411447       -11.1960 
  38   1.0000      -0.403411       -10.9774 
  39   1.0000      -0.402156       -10.9432 
  40   1.0000      -0.391547       -10.6545 
  41   1.0000      -0.389386       -10.5957 
  42   1.0000      -0.386245       -10.5103 
  43   1.0000      -0.385605       -10.4929 
  44   1.0000      -0.383590       -10.4380 
  45   1.0000      -0.373864       -10.1734 
  46   1.0000      -0.341992        -9.3061 
  47   1.0000      -0.337982        -9.1970 
  48   1.0000      -0.323320        -8.7980 
  49   1.0000      -0.322530        -8.7765 
  50   1.0000      -0.318801        -8.6750 
  51   1.0000      -0.314806        -8.5663 
  52   1.0000      -0.314750        -8.5648 
  53   1.0000      -0.310650        -8.4532 
  54   0.0000      -0.283857        -7.7241 
  55   0.0000      -0.280613        -7.6359 
  56   0.0000      -0.232865        -6.3366 
  57   0.0000      -0.222567        -6.0564 
  58   0.0000      -0.070816        -1.9270 
  59   0.0000      -0.006802        -0.1851 
  60   0.0000      -0.002437        -0.0663 
  61   0.0000       0.036663         0.9977 
  62   0.0000       0.101993         2.7754 
  63   0.0000       0.135395         3.6843 
  64   0.0000       0.140712         3.8290 
  65   0.0000       0.171030         4.6540 
  66   0.0000       0.210110         5.7174 
  67   0.0000       0.319529         8.6948 
  68   0.0000       0.400761        10.9053 
  69   0.0000       0.413798        11.2600 
  70   0.0000       0.423500        11.5240 
  71   0.0000       0.451173        12.2770 
  72   0.0000       0.469743        12.7824 
  73   0.0000       0.485060        13.1991 
  74   0.0000       0.490349        13.3431 
  75   0.0000       0.511251        13.9118 
  76   0.0000       0.512749        13.9526 
  77   0.0000       0.525609        14.3025 
  78   0.0000       0.535945        14.5838 
  79   0.0000       0.566308        15.4100 
  80   0.0000       0.570214        15.5163 
  81   0.0000       0.572290        15.5728 
  82   0.0000       0.589254        16.0344 
  83   0.0000       0.604904        16.4603 
  84   0.0000       0.637578        17.3494 
  85   0.0000       0.645492        17.5647 
  86   0.0000       0.649057        17.6617 
  87   0.0000       0.667248        18.1567 
  88   0.0000       0.684640        18.6300 
  89   0.0000       0.706844        19.2342 
  90   0.0000       0.758396        20.6370 
  91   0.0000       0.759765        20.6742 
  92   0.0000       0.803643        21.8682 
  93   0.0000       0.881378        23.9835 
  94   0.0000       0.917182        24.9578 
  95   0.0000       0.931666        25.3519 
  96   0.0000       0.934582        25.4313 
  97   0.0000       1.015656        27.6374 
  98   0.0000       1.029126        28.0040 
  99   0.0000       1.035894        28.1881 
 100   0.0000       1.096053        29.8251 
 101   0.0000       1.155201        31.4346 
 102   0.0000       1.201521        32.6951 
 103   0.0000       1.277048        34.7502 
 104   0.0000       1.290374        35.1129 
 105   0.0000       1.296158        35.2702 
 106   0.0000       1.349306        36.7165 
 107   0.0000       1.371965        37.3331 
 108   0.0000       1.854919        50.4749 
 109   0.0000       1.875854        51.0446 
 110   0.0000       1.894075        51.5404 
 111   0.0000       1.915514        52.1238 
 112   0.0000       1.927604        52.4528 
 113   0.0000       1.948298        53.0159 
 114   0.0000       1.948371        53.0179 
 115   0.0000       1.958416        53.2912 
 116   0.0000       1.958858        53.3032 
 117   0.0000       1.959752        53.3276 
 118   0.0000       1.961135        53.3652 
 119   0.0000       1.962177        53.3935 
 120   0.0000       1.972973        53.6873 
 121   0.0000       1.973543        53.7028 
 122   0.0000       1.993477        54.2453 
 123   0.0000       2.008603        54.6569 
 124   0.0000       2.089597        56.8608 
 125   0.0000       2.108258        57.3686 
 126   0.0000       2.123270        57.7771 
 127   0.0000       2.147848        58.4459 
 128   0.0000       2.198574        59.8262 
 129   0.0000       2.228846        60.6500 
 130   0.0000       2.299987        62.5858 
 131   0.0000       2.323679        63.2305 
 132   0.0000       2.348617        63.9091 
 133   0.0000       2.377674        64.6998 
 134   0.0000       2.377909        64.7062 
 135   0.0000       2.409423        65.5637 
 136   0.0000       2.454431        66.7885 
 137   0.0000       2.485324        67.6291 
 138   0.0000       2.525947        68.7345 
 139   0.0000       2.583048        70.2883 
 140   0.0000       2.866900        78.0123 
 141   0.0000       2.889409        78.6248 
 142   0.0000       2.897609        78.8479 
 143   0.0000       2.972079        80.8744 
 144   0.0000       2.993767        81.4645 
 145   0.0000       3.018585        82.1399 
 146   0.0000       3.019538        82.1658 
 147   0.0000       3.023435        82.2718 
 148   0.0000       3.025552        82.3295 
 149   0.0000       3.032543        82.5197 
 150   0.0000       3.052359        83.0589 
 151   0.0000       3.055232        83.1371 
 152   0.0000       3.067124        83.4607 
 153   0.0000       3.076886        83.7263 
 154   0.0000       3.116408        84.8018 
 155   0.0000       3.130930        85.1969 
 156   0.0000       3.136652        85.3527 
 157   0.0000       3.142399        85.5090 
 158   0.0000       3.157356        85.9160 
 159   0.0000       3.177154        86.4548 
 160   0.0000       3.188188        86.7550 
 161   0.0000       3.260296        88.7172 
 162   0.0000       3.293726        89.6268 
 163   0.0000       3.317755        90.2807 
 164   0.0000       3.325241        90.4844 
 165   0.0000       3.408275        92.7439 
 166   0.0000       3.411238        92.8245 
 167   0.0000       3.474012        94.5327 
 168   0.0000       3.664594        99.7187 
 169   0.0000       3.679983       100.1374 
 170   0.0000       3.777968       102.8037 
 171   0.0000       3.803539       103.4996 
 172   0.0000       3.908385       106.3526 
 173   0.0000       3.977050       108.2210 
 174   0.0000      56.208717      1529.5169 
 175   0.0000      56.222740      1529.8985 
 176   0.0000      56.350141      1533.3653 
 177   0.0000      56.352043      1533.4170 
 178   0.0000      56.575957      1539.5101 
 179   0.0000      56.603930      1540.2712 

                 SPIN DOWN ORBITALS
  NO   OCC          E(Eh)            E(eV) 
   0   1.0000    -234.206319     -6373.0779 
   1   1.0000    -234.206314     -6373.0778 
   2   1.0000     -27.021464      -735.2914 
   3   1.0000     -27.021438      -735.2907 
   4   1.0000     -24.329071      -662.0277 
   5   1.0000     -24.329068      -662.0276 
   6   1.0000     -24.242905      -659.6830 
   7   1.0000     -24.242904      -659.6829 
   8   1.0000     -24.242888      -659.6825 
   9   1.0000     -24.242886      -659.6825 
  10   1.0000     -23.221389      -631.8861 
  11   1.0000     -23.221382      -631.8859 
  12   1.0000     -23.209423      -631.5605 
  13   1.0000     -23.209422      -631.5605 
  14   1.0000     -23.194837      -631.1636 
  15   1.0000     -23.194834      -631.1635 
  16   1.0000      -3.100108       -84.3582 
  17   1.0000      -3.099827       -84.3506 
  18   1.0000      -2.040227       -55.5174 
  19   1.0000      -2.037205       -55.4352 
  20   1.0000      -1.996774       -54.3350 
  21   1.0000      -1.996078       -54.3161 
  22   1.0000      -1.976547       -53.7846 
  23   1.0000      -1.976324       -53.7785 
  24   1.0000      -1.166814       -31.7506 
  25   1.0000      -1.155660       -31.4471 
  26   1.0000      -1.056413       -28.7465 
  27   1.0000      -1.055758       -28.7286 
  28   1.0000      -1.051138       -28.6029 
  29   1.0000      -1.051127       -28.6026 
  30   1.0000      -0.519554       -14.1378 
  31   1.0000      -0.511467       -13.9177 
  32   1.0000      -0.507531       -13.8106 
  33   1.0000      -0.471059       -12.8182 
  34   1.0000      -0.471009       -12.8168 
  35   1.0000      -0.453686       -12.3454 
  36   1.0000      -0.407003       -11.0751 
  37   1.0000      -0.406989       -11.0747 
  38   1.0000      -0.406120       -11.0511 
  39   1.0000      -0.399060       -10.8590 
  40   1.0000      -0.380291       -10.3482 
  41   1.0000      -0.372406       -10.1337 
  42   1.0000      -0.365825        -9.9546 
  43   1.0000      -0.365706        -9.9514 
  44   1.0000      -0.358288        -9.7495 
  45   1.0000      -0.355213        -9.6658 
  46   1.0000      -0.345373        -9.3981 
  47   1.0000      -0.342530        -9.3207 
  48   1.0000      -0.279795        -7.6136 
  49   1.0000      -0.278044        -7.5660 
  50   0.0000      -0.237075        -6.4511 
  51   0.0000      -0.229302        -6.2396 
  52   0.0000      -0.221439        -6.0257 
  53   0.0000      -0.221373        -6.0239 
  54   0.0000      -0.220638        -6.0039 
  55   0.0000      -0.217520        -5.9190 
  56   0.0000      -0.181230        -4.9315 
  57   0.0000      -0.172626        -4.6974 
  58   0.0000      -0.060512        -1.6466 
  59   0.0000       0.003142         0.0855 
  60   0.0000       0.004066         0.1106 
  61   0.0000       0.045911         1.2493 
  62   0.0000       0.109304         2.9743 
  63   0.0000       0.139888         3.8065 
  64   0.0000       0.152190         4.1413 
  65   0.0000       0.181103         4.9281 
  66   0.0000       0.214275         5.8307 
  67   0.0000       0.329798         8.9742 
  68   0.0000       0.407369        11.0851 
  69   0.0000       0.424299        11.5458 
  70   0.0000       0.444376        12.0921 
  71   0.0000       0.455206        12.3868 
  72   0.0000       0.470350        12.7989 
  73   0.0000       0.492188        13.3931 
  74   0.0000       0.497990        13.5510 
  75   0.0000       0.512772        13.9532 
  76   0.0000       0.516580        14.0569 
  77   0.0000       0.534594        14.5470 
  78   0.0000       0.536915        14.6102 
  79   0.0000       0.568793        15.4777 
  80   0.0000       0.570070        15.5124 
  81   0.0000       0.574806        15.6413 
  82   0.0000       0.589933        16.0529 
  83   0.0000       0.612685        16.6720 
  84   0.0000       0.649171        17.6649 
  85   0.0000       0.651879        17.7385 
  86   0.0000       0.659339        17.9415 
  87   0.0000       0.684186        18.6177 
  88   0.0000       0.692480        18.8433 
  89   0.0000       0.736437        20.0395 
  90   0.0000       0.759166        20.6580 
  91   0.0000       0.776064        21.1178 
  92   0.0000       0.803353        21.8603 
  93   0.0000       0.891973        24.2718 
  94   0.0000       0.922065        25.0907 
  95   0.0000       0.933434        25.4000 
  96   0.0000       0.951646        25.8956 
  97   0.0000       1.023692        27.8561 
  98   0.0000       1.038909        28.2702 
  99   0.0000       1.040478        28.3129 
 100   0.0000       1.124783        30.6069 
 101   0.0000       1.180881        32.1334 
 102   0.0000       1.241795        33.7909 
 103   0.0000       1.296005        35.2661 
 104   0.0000       1.326821        36.1046 
 105   0.0000       1.362661        37.0799 
 106   0.0000       1.389096        37.7992 
 107   0.0000       1.415948        38.5299 
 108   0.0000       1.855267        50.4844 
 109   0.0000       1.877160        51.0801 
 110   0.0000       1.891702        51.4758 
 111   0.0000       1.913015        52.0558 
 112   0.0000       1.929320        52.4995 
 113   0.0000       1.949095        53.0376 
 114   0.0000       1.951314        53.0980 
 115   0.0000       1.959105        53.3100 
 116   0.0000       1.959468        53.3198 
 117   0.0000       1.959887        53.3312 
 118   0.0000       1.964505        53.4569 
 119   0.0000       1.965195        53.4757 
 120   0.0000       1.974317        53.7239 
 121   0.0000       1.975382        53.7529 
 122   0.0000       1.990660        54.1686 
 123   0.0000       2.005018        54.5593 
 124   0.0000       2.093452        56.9657 
 125   0.0000       2.114039        57.5259 
 126   0.0000       2.128318        57.9145 
 127   0.0000       2.154415        58.6246 
 128   0.0000       2.200945        59.8908 
 129   0.0000       2.285183        62.1830 
 130   0.0000       2.325550        63.2814 
 131   0.0000       2.341132        63.7054 
 132   0.0000       2.391066        65.0642 
 133   0.0000       2.400345        65.3167 
 134   0.0000       2.406278        65.4782 
 135   0.0000       2.421427        65.8904 
 136   0.0000       2.461322        66.9760 
 137   0.0000       2.497166        67.9513 
 138   0.0000       2.526337        68.7451 
 139   0.0000       2.582615        70.2765 
 140   0.0000       2.936889        79.9168 
 141   0.0000       2.949031        80.2472 
 142   0.0000       2.976089        80.9835 
 143   0.0000       2.990329        81.3710 
 144   0.0000       3.028976        82.4226 
 145   0.0000       3.038549        82.6831 
 146   0.0000       3.044460        82.8440 
 147   0.0000       3.045418        82.8700 
 148   0.0000       3.068890        83.5088 
 149   0.0000       3.080033        83.8120 
 150   0.0000       3.081622        83.8552 
 151   0.0000       3.083140        83.8965 
 152   0.0000       3.084876        83.9437 
 153   0.0000       3.092361        84.1474 
 154   0.0000       3.117571        84.8334 
 155   0.0000       3.136237        85.3414 
 156   0.0000       3.140818        85.4660 
 157   0.0000       3.156845        85.9021 
 158   0.0000       3.172788        86.3360 
 159   0.0000       3.174014        86.3693 
 160   0.0000       3.202728        87.1507 
 161   0.0000       3.265475        88.8581 
 162   0.0000       3.326256        90.5120 
 163   0.0000       3.340399        90.8969 
 164   0.0000       3.366709        91.6128 
 165   0.0000       3.405796        92.6764 
 166   0.0000       3.436746        93.5186 
 167   0.0000       3.486159        94.8632 
 168   0.0000       3.670636        99.8831 
 169   0.0000       3.685802       100.2958 
 170   0.0000       3.780590       102.8751 
 171   0.0000       3.804257       103.5191 
 172   0.0000       3.911090       106.4262 
 173   0.0000       3.979227       108.2803 
 174   0.0000      56.209307      1529.5330 
 175   0.0000      56.223016      1529.9060 
 176   0.0000      56.350091      1533.3639 
 177   0.0000      56.351997      1533.4158 
 178   0.0000      56.577276      1539.5459 
 179   0.0000      56.604928      1540.2984 

                    ********************************
                    * MULLIKEN POPULATION ANALYSIS *
                    ********************************

--------------------------------------------
MULLIKEN ATOMIC CHARGES AND SPIN POPULATIONS
--------------------------------------------
   0 F :   -0.367887   -0.019420
   1 Mn:    1.137101    2.036155
   2 Mn:    1.137099    2.036156
   3 F :   -0.367863   -0.019456
   4 F :   -0.401351    0.002721
   5 F :   -0.401351    0.002721
   6 F :   -0.367862   -0.019456
   7 F :   -0.367885   -0.019421
Sum of atomic charges         :   -0.0000000
Sum of atomic spin populations:    4.0000000

-----------------------------------------------------
MULLIKEN REDUCED ORBITAL CHARGES AND SPIN POPULATIONS
-----------------------------------------------------
CHARGE
  0 F s       :     3.973006  s :     3.973006
      pz      :     1.887337  p :     5.389796
      px      :     1.801653
      py      :     1.700807
      dz2     :     0.000681  d :     0.005085
      dxz     :     0.000473
      dyz     :     0.000813
      dx2y2   :     0.001249
      dxy     :     0.001869
  1 Mns       :     6.377847  s :     6.377847
      pz      :     4.085638  p :    12.241912
      px      :     4.074036
      py      :     4.082237
      dz2     :     1.235997  d :     5.243140
      dxz     :     1.114881
      dyz     :     1.119793
      dx2y2   :     1.027297
      dxy     :     0.745172
  2 Mns       :     6.377848  s :     6.377848
      pz      :     4.085639  p :    12.241912
      px      :     4.074036
      py      :     4.082237
      dz2     :     1.235997  d :     5.243142
      dxz     :     1.114881
      dyz     :     1.119794
      dx2y2   :     1.027299
      dxy     :     0.745171
  3 F s       :     3.972974  s :     3.972974
      pz      :     1.887377  p :     5.389805
      px      :     1.733351
      py      :     1.769077
      dz2     :     0.000680  d :     0.005085
      dxz     :     0.000878
      dyz     :     0.000408
      dx2y2   :     0.001290
      dxy     :     0.001828
  4 F s       :     3.964562  s :     3.964562
      pz      :     1.899866  p :     5.427496
      px      :     1.734143
      py      :     1.793487
      dz2     :     0.001254  d :     0.009294
      dxz     :     0.000829
      dyz     :     0.001707
      dx2y2   :     0.002203
      dxy     :     0.003300
  5 F s       :     3.964562  s :     3.964562
      pz      :     1.899866  p :     5.427496
      px      :     1.734144
      py      :     1.793486
      dz2     :     0.001254  d :     0.009294
      dxz     :     0.000829
      dyz     :     0.001707
      dx2y2   :     0.002203
      dxy     :     0.003300
  6 F s       :     3.972974  s :     3.972974
      pz      :     1.887376  p :     5.389803
      px      :     1.733351
      py      :     1.769076
      dz2     :     0.000680  d :     0.005085
      dxz     :     0.000878
      dyz     :     0.000408
      dx2y2   :     0.001290
      dxy     :     0.001828
  7 F s       :     3.973006  s :     3.973006
      pz      :     1.887336  p :     5.389795
      px      :     1.801651
      py      :     1.700807
      dz2     :     0.000681  d :     0.005085
      dxz     :     0.000473
      dyz     :     0.000813
      dx2y2   :     0.001249
      dxy     :     0.001869

SPIN
  0 F s       :    -0.000354  s :    -0.000354
      pz      :     0.074610  p :    -0.019247
      px      :    -0.001887
      py      :    -0.091970
      dz2     :     0.000004  d :     0.000180
      dxz     :     0.000025
      dyz     :     0.000054
      dx2y2   :     0.000037
      dxy     :     0.000060
  1 Mns       :    -0.009208  s :    -0.009208
      pz      :     0.002489  p :     0.012655
      px      :     0.007033
      py      :     0.003133
      dz2     :    -0.043107  d :     2.032708
      dxz     :     0.901342
      dyz     :     0.894027
      dx2y2   :     0.152707
      dxy     :     0.127739
  2 Mns       :    -0.009207  s :    -0.009207
      pz      :     0.002489  p :     0.012655
      px      :     0.007033
      py      :     0.003133
      dz2     :    -0.043101  d :     2.032708
      dxz     :     0.901342
      dyz     :     0.894027
      dx2y2   :     0.152702
      dxy     :     0.127738
  3 F s       :    -0.000360  s :    -0.000360
      pz      :     0.074570  p :    -0.019278
      px      :    -0.007847
      py      :    -0.086000
      dz2     :     0.000005  d :     0.000181
      dxz     :     0.000041
      dyz     :     0.000038
      dx2y2   :     0.000048
      dxy     :     0.000050
  4 F s       :    -0.003289  s :    -0.003289
      pz      :     0.051958  p :     0.005179
      px      :    -0.011454
      py      :    -0.035324
      dz2     :     0.000009  d :     0.000831
      dxz     :     0.000677
      dyz     :     0.000170
      dx2y2   :     0.000107
      dxy     :    -0.000132
  5 F s       :    -0.003289  s :    -0.003289
      pz      :     0.051958  p :     0.005179
      px      :    -0.011454
      py      :    -0.035324
      dz2     :     0.000009  d :     0.000831
      dxz     :     0.000677
      dyz     :     0.000170
      dx2y2   :     0.000107
      dxy     :    -0.000132
  6 F s       :    -0.000359  s :    -0.000359
      pz      :     0.074570  p :    -0.019278
      px      :    -0.007847
      py      :    -0.086001
      dz2     :     0.000005  d :     0.000181
      dxz     :     0.000041
      dyz     :     0.000038
      dx2y2   :     0.000048
      dxy     :     0.000050
  7 F s       :    -0.000354  s :    -0.000354
      pz      :     0.074610  p :    -0.019247
      px      :    -0.001888
      py      :    -0.091970
      dz2     :     0.000004  d :     0.000180
      dxz     :     0.000025
      dyz     :     0.000054
      dx2y2   :     0.000037
      dxy     :     0.000060


                     *******************************
                     * LOEWDIN POPULATION ANALYSIS *
                     *******************************

-------------------------------------------
LOEWDIN ATOMIC CHARGES AND SPIN POPULATIONS
-------------------------------------------
   0 F :   -0.300069   -0.010157
   1 Mn:    0.838399    1.997750
   2 Mn:    0.838397    1.997751
   3 F :   -0.300076   -0.010192
   4 F :   -0.238254    0.022599
   5 F :   -0.238255    0.022598
   6 F :   -0.300074   -0.010191
   7 F :   -0.300067   -0.010158

----------------------------------------------------
LOEWDIN REDUCED ORBITAL CHARGES AND SPIN POPULATIONS
----------------------------------------------------
CHARGE
  0 F s       :     3.873839  s :     3.873839
      pz      :     1.878393  p :     5.419167
      px      :     1.811434
      py      :     1.729340
      dz2     :     0.000977  d :     0.007062
      dxz     :     0.000616
      dyz     :     0.001117
      dx2y2   :     0.001785
      dxy     :     0.002568
  1 Mns       :     6.267204  s :     6.267204
      pz      :     4.094090  p :    12.459943
      px      :     4.183579
      py      :     4.182274
      dz2     :     1.268393  d :     5.434454
      dxz     :     1.127421
      dyz     :     1.133729
      dx2y2   :     1.056158
      dxy     :     0.848754
  2 Mns       :     6.267204  s :     6.267204
      pz      :     4.094090  p :    12.459943
      px      :     4.183579
      py      :     4.182274
      dz2     :     1.268393  d :     5.434456
      dxz     :     1.127421
      dyz     :     1.133729
      dx2y2   :     1.056160
      dxy     :     0.848753
  3 F s       :     3.873834  s :     3.873834
      pz      :     1.878430  p :     5.419179
      px      :     1.757710
      py      :     1.783038
      dz2     :     0.000976  d :     0.007063
      dxz     :     0.001152
      dyz     :     0.000581
      dx2y2   :     0.001800
      dxy     :     0.002554
  4 F s       :     3.787390  s :     3.787390
      pz      :     1.880846  p :     5.437363
      px      :     1.761115
      py      :     1.795401
      dz2     :     0.001823  d :     0.013501
      dxz     :     0.001581
      dyz     :     0.002044
      dx2y2   :     0.003207
      dxy     :     0.004846
  5 F s       :     3.787390  s :     3.787390
      pz      :     1.880847  p :     5.437364
      px      :     1.761116
      py      :     1.795401
      dz2     :     0.001823  d :     0.013501
      dxz     :     0.001581
      dyz     :     0.002044
      dx2y2   :     0.003207
      dxy     :     0.004846
  6 F s       :     3.873834  s :     3.873834
      pz      :     1.878430  p :     5.419178
      px      :     1.757711
      py      :     1.783037
      dz2     :     0.000976  d :     0.007063
      dxz     :     0.001152
      dyz     :     0.000581
      dx2y2   :     0.001800
      dxy     :     0.002554
  7 F s       :     3.873839  s :     3.873839
      pz      :     1.878392  p :     5.419166
      px      :     1.811433
      py      :     1.729340
      dz2     :     0.000977  d :     0.007062
      dxz     :     0.000616
      dyz     :     0.001117
      dx2y2   :     0.001785
      dxy     :     0.002568

SPIN
  0 F s       :     0.000166  s :     0.000166
      pz      :     0.075744  p :    -0.011402
      px      :     0.000182
      py      :    -0.087328
      dz2     :     0.000061  d :     0.001079
      dxz     :     0.000234
      dyz     :     0.000467
      dx2y2   :     0.000020
      dxy     :     0.000297
  1 Mns       :    -0.015919  s :    -0.015919
      pz      :     0.002243  p :     0.007795
      px      :     0.003045
      py      :     0.002506
      dz2     :    -0.046765  d :     2.005875
      dxz     :     0.896211
      dyz     :     0.889911
      dx2y2   :     0.148433
      dxy     :     0.118084
  2 Mns       :    -0.015919  s :    -0.015919
      pz      :     0.002243  p :     0.007795
      px      :     0.003045
      py      :     0.002506
      dz2     :    -0.046759  d :     2.005875
      dxz     :     0.896211
      dyz     :     0.889911
      dx2y2   :     0.148428
      dxy     :     0.118084
  3 F s       :     0.000168  s :     0.000168
      pz      :     0.075704  p :    -0.011439
      px      :    -0.004522
      py      :    -0.082622
      dz2     :     0.000062  d :     0.001080
      dxz     :     0.000442
      dyz     :     0.000258
      dx2y2   :     0.000183
      dxy     :     0.000135
  4 F s       :     0.000851  s :     0.000851
      pz      :     0.056581  p :     0.019101
      px      :    -0.007384
      py      :    -0.030097
      dz2     :     0.000026  d :     0.002647
      dxz     :     0.001375
      dyz     :     0.000829
      dx2y2   :     0.000316
      dxy     :     0.000101
  5 F s       :     0.000851  s :     0.000851
      pz      :     0.056581  p :     0.019100
      px      :    -0.007384
      py      :    -0.030097
      dz2     :     0.000026  d :     0.002647
      dxz     :     0.001375
      dyz     :     0.000829
      dx2y2   :     0.000316
      dxy     :     0.000101
  6 F s       :     0.000168  s :     0.000168
      pz      :     0.075705  p :    -0.011439
      px      :    -0.004522
      py      :    -0.082622
      dz2     :     0.000062  d :     0.001080
      dxz     :     0.000442
      dyz     :     0.000258
      dx2y2   :     0.000183
      dxy     :     0.000135
  7 F s       :     0.000166  s :     0.000166
      pz      :     0.075744  p :    -0.011403
      px      :     0.000182
      py      :    -0.087329
      dz2     :     0.000061  d :     0.001079
      dxz     :     0.000234
      dyz     :     0.000467
      dx2y2   :     0.000020
      dxy     :     0.000297


                      *****************************
                      * MAYER POPULATION ANALYSIS *
                      *****************************

  NA   - Mulliken gross atomic population
  ZA   - Total nuclear charge
  QA   - Mulliken gross atomic charge
  VA   - Mayer's total valence
  BVA  - Mayer's bonded valence
  FA   - Mayer's free valence

  ATOM       NA         ZA         QA         VA         BVA        FA
  0 F      9.3679     9.0000    -0.3679     1.0679     1.0536     0.0143
  1 Mn    23.8629    25.0000     1.1371     5.9803     2.8952     3.0851
  2 Mn    23.8629    25.0000     1.1371     5.9803     2.8952     3.0851
  3 F      9.3679     9.0000    -0.3679     1.0680     1.0537     0.0143
  4 F      9.4014     9.0000    -0.4014     0.9776     0.9731     0.0045
  5 F      9.4014     9.0000    -0.4014     0.9776     0.9731     0.0045
  6 F      9.3679     9.0000    -0.3679     1.0680     1.0537     0.0143
  7 F      9.3679     9.0000    -0.3679     1.0679     1.0536     0.0143

  Mayer bond orders larger than 0.100000
B(  0-F ,  1-Mn) :   0.9752 B(  1-Mn,  3-F ) :   0.9753 B(  1-Mn,  4-F ) :   0.4526 
B(  1-Mn,  5-F ) :   0.4528 B(  2-Mn,  4-F ) :   0.4528 B(  2-Mn,  5-F ) :   0.4526 
B(  2-Mn,  6-F ) :   0.9753 B(  2-Mn,  7-F ) :   0.9752 

-------
TIMINGS
-------

Total SCF time: 0 days 0 hours 0 min 32 sec 

Total time                  ....      32.191 sec
Sum of individual times     ....      31.747 sec  ( 98.6%)

Fock matrix formation       ....      27.776 sec  ( 86.3%)
  Split-RI-J                ....      13.022 sec  ( 46.9% of F)
  XC integration            ....      14.451 sec  ( 52.0% of F)
    Basis function eval.    ....       2.271 sec  ( 15.7% of XC)
    Density eval.           ....       4.758 sec  ( 32.9% of XC)
    XC-Functional eval.     ....       2.334 sec  ( 16.2% of XC)
    XC-Potential eval.      ....       3.550 sec  ( 24.6% of XC)
Diagonalization             ....       2.367 sec  (  7.4%)
Density matrix formation    ....       0.078 sec  (  0.2%)
Population analysis         ....       0.020 sec  (  0.1%)
Initial guess               ....       0.027 sec  (  0.1%)
Orbital Transformation      ....       0.000 sec  (  0.0%)
Orbital Orthonormalization  ....       0.000 sec  (  0.0%)
DIIS solution               ....       0.898 sec  (  2.8%)
Grid generation             ....       0.581 sec  (  1.8%)


-------------------------------------------------------------------------------
                          DFT DISPERSION CORRECTION                            
                                                                               
                              DFTD3 V3.1  Rev 1                                
                          USING Becke-Johnson damping                          
-------------------------------------------------------------------------------
The B97-3c composite method is recognized
Using three-body term ABC
Active option DFTDOPT                   ...         4   

molecular C6(AA) [au] = 2048.253713 


            DFT-D V3
 parameters
 s6 scaling factor         :     1.0000 
 a1 scaling factor         :     0.3700 
 s8 scaling factor         :     1.5000 
 a2 scaling factor         :     4.1000 
 Damping factor alpha9(ATM):    16.0000 
 ad hoc parameters k1-k3   :    16.0000     1.3333    -4.0000 

 Edisp/kcal,au: -9.706399779002  -0.015468130992 
 E6   /kcal   :  -3.865619607 
 E8   /kcal   :  -5.840065620 
 E6(ABC)      :  -0.000714552 
 % E8         :  60.167165512 
 % E6(ABC)    :   0.007361659 

-------------------------   ----------------
Dispersion correction           -0.015468131
-------------------------   ----------------

------------------   -----------------
SRB correction            -0.015502390
------------------   -----------------

-------------------------   --------------------
FINAL SINGLE POINT ENERGY     -2901.436582200179
-------------------------   --------------------



           ************************************************************
           *        Program running with 4 parallel MPI-processes     *
           *              working on a common directory               *
           ************************************************************
------------------------------------------------------------------------------
                         ORCA SCF GRADIENT CALCULATION
------------------------------------------------------------------------------

Gradient of the Kohn-Sham DFT energy:
Kohn-Sham wavefunction type      ... UKS
Hartree-Fock exchange scaling    ...    0.000
Number of operators              ...    2
Number of atoms                  ...    8
Basis set dimensions             ...  180
Integral neglect threshold       ... 2.5e-11
Integral primitive cutoff        ... 2.5e-12

Nuclear repulsion gradient       ... done
One Electron Gradient            ... done
Pre-screening matrix             ... done
RI-J gradient                    ... done
Exchange-correlation gradient    ... done
Dispersion correction            ... done
SRB correction                   ... done

------------------
CARTESIAN GRADIENT
------------------

   1   F   :   -0.035347350    0.041689303   -0.000000000
   2   Mn  :    0.110047022   -0.018604109   -0.000000000
   3   Mn  :   -0.110046745    0.018604369   -0.000000001
   4   F   :   -0.047041883   -0.027766635   -0.000000000
   5   F   :    0.000230019    0.001259297    0.000000000
   6   F   :   -0.000230263   -0.001259919    0.000000000
   7   F   :    0.047041592    0.027766837    0.000000001
   8   F   :    0.035347607   -0.041689142    0.000000000

Difference to translation invariance:
           :    0.0000000001    0.0000000001    0.0000000000

Norm of the cartesian gradient     ...    0.1919865934
RMS gradient                       ...    0.0391890993
MAX gradient                       ...    0.1100470221

-------
TIMINGS
-------

Total SCF gradient time            ...        1.771 sec

One electron gradient       ....       0.037 sec  (  2.1%)
Prescreening matrices       ....       0.158 sec  (  8.9%)
RI-J Coulomb gradient       ....       0.256 sec  ( 14.4%)
XC gradient                 ....       1.130 sec  ( 63.8%)
------------------------------------------------------------------------------
                         ORCA GEOMETRY RELAXATION STEP
------------------------------------------------------------------------------

Reading the OPT-File                    .... done
Getting information on internals        .... done
Copying old internal coords+grads       .... done
Making the new internal coordinates     .... (new redundants).... done
Validating the new internal coordinates .... (new redundants).... done
Calculating the B-matrix                .... done
Calculating the G,G- and P matrices     .... done
Transforming gradient to internals      .... done
Projecting the internal gradient        .... done
Number of atoms                         ....   8
Number of internal coordinates          ....  49
Current Energy                          .... -2901.436582200 Eh
Current gradient norm                   ....     0.191986593 Eh/bohr
Maximum allowed component of the step   ....  0.300
Current trust radius                    ....  0.300
Evaluating the initial hessian          ....  (Almloef) done
Projecting the Hessian                  .... done
Forming the augmented Hessian           .... done
Diagonalizing the augmented Hessian     .... done
Last element of RFO vector              ....  0.990783562
Lowest eigenvalues of augmented Hessian:
 -0.015194019  0.001861428  0.001888010  0.001988801  0.002319218
Length of the computed step             ....  0.136714568
The final length of the internal step   ....  0.136714568
Converting the step to cartesian space:
 Initial RMS(Int)=    0.0195306526
Transforming coordinates:
 Iter   0:  RMS(Cart)=    0.0220039308 RMS(Int)=    2.3749009892
 Iter   1:  RMS(Cart)=    0.0002332669 RMS(Int)=    0.0001046459
 Iter   2:  RMS(Cart)=    0.0000040588 RMS(Int)=    0.0000020126
 Iter   3:  RMS(Cart)=    0.0000000527 RMS(Int)=    0.0000000278
done
Storing new coordinates                 .... done

                                .--------------------.
          ----------------------|Geometry convergence|-------------------------
          Item                value                   Tolerance       Converged
          ---------------------------------------------------------------------
          RMS gradient        0.0161356717            0.0000300000      NO
          MAX gradient        0.0544237161            0.0001000000      NO
          RMS step            0.0195306526            0.0006000000      NO
          MAX step            0.0616878385            0.0010000000      NO
          ........................................................
          Max(Bonds)      0.0326      Max(Angles)    1.03
          Max(Dihed)        0.00      Max(Improp)    0.00
          ---------------------------------------------------------------------

The optimization has not yet converged - more geometry cycles are needed


    ---------------------------------------------------------------------------
                         Redundant Internal Coordinates
                            (Angstroem and degrees)

        Definition                    Value    dE/dq     Step     New-Value
    ----------------------------------------------------------------------------
     1. B(Mn  1,F   0)                1.8808  0.054424 -0.0326    1.8482   
     2. B(Mn  2,Mn  1)                2.8193 -0.018700  0.0206    2.8399   
     3. B(F   3,Mn  1)                1.8808  0.054389 -0.0326    1.8482   
     4. B(F   4,Mn  2)                1.8808 -0.003087  0.0030    1.8838   
     5. B(F   4,Mn  1)                1.8808 -0.003074  0.0030    1.8838   
     6. B(F   5,Mn  2)                1.8808 -0.003074  0.0030    1.8838   
     7. B(F   5,Mn  1)                1.8808 -0.003087  0.0030    1.8838   
     8. B(F   6,Mn  2)                1.8808  0.054389 -0.0326    1.8482   
     9. B(F   7,Mn  2)                1.8808  0.054424 -0.0326    1.8482   
    10. A(F   3,Mn  1,F   5)           93.10  0.002224   -0.14     92.96   
    11. A(F   4,Mn  1,F   5)           82.91  0.005985   -0.75     82.16   
    12. A(Mn  2,Mn  1,F   5)           41.45  0.002994   -0.37     41.08   
    13. A(F   0,Mn  1,Mn  2)          134.55  0.005276   -0.52    134.04   
    14. A(Mn  2,Mn  1,F   3)          134.55  0.005218   -0.51    134.04   
    15. A(Mn  2,Mn  1,F   4)           41.45  0.002991   -0.37     41.08   
    16. A(F   0,Mn  1,F   3)           90.89 -0.010495    1.03     91.92   
    17. A(F   0,Mn  1,F   4)           93.10  0.002286   -0.14     92.96   
    18. A(Mn  1,Mn  2,F   6)          134.55  0.005218   -0.51    134.04   
    19. A(Mn  1,Mn  2,F   4)           41.45  0.002994   -0.37     41.08   
    20. A(F   4,Mn  2,F   5)           82.91  0.005985   -0.75     82.16   
    21. A(Mn  1,Mn  2,F   5)           41.45  0.002991   -0.37     41.08   
    22. A(F   6,Mn  2,F   7)           90.89 -0.010495    1.03     91.92   
    23. A(F   4,Mn  2,F   6)           93.10  0.002224   -0.14     92.96   
    24. A(F   5,Mn  2,F   7)           93.10  0.002286   -0.14     92.96   
    25. A(Mn  1,Mn  2,F   7)          134.55  0.005277   -0.52    134.04   
    26. A(Mn  1,F   4,Mn  2)           97.09 -0.005985    0.75     97.84   
    27. A(Mn  1,F   5,Mn  2)           97.09 -0.005985    0.75     97.84   
    28. D(F   4,Mn  2,Mn  1,F   3)    180.00  0.000000   -0.00    180.00   
    29. D(F   6,Mn  2,Mn  1,F   3)    180.00  0.000000   -0.00    180.00   
    30. D(F   5,Mn  2,Mn  1,F   0)    180.00 -0.000000    0.00    180.00   
    31. D(F   5,Mn  2,Mn  1,F   3)      0.00 -0.000000    0.00      0.00   
    32. D(F   5,Mn  2,Mn  1,F   4)    180.00 -0.000000    0.00    180.00   
    33. D(F   4,Mn  2,Mn  1,F   5)    180.00  0.000000   -0.00    180.00   
    34. D(F   6,Mn  2,Mn  1,F   5)    180.00  0.000000   -0.00    180.00   
    35. D(F   6,Mn  2,Mn  1,F   4)      0.00  0.000000   -0.00     -0.00   
[...]
     CP-SCF ITERATION  10:      0.013787921027
     CP-SCF ITERATION  11:      0.156938550482
     CP-SCF ITERATION  12:      0.282393065049
     CP-SCF ITERATION  13:      0.008032036171
     CP-SCF ITERATION  14:      0.013242093373
     CP-SCF ITERATION  15:      0.007800366513
     CP-SCF ITERATION  16:      0.003662118758
     CP-SCF ITERATION  17:      0.000531964092
     CP-SCF ITERATION  18:      0.000101140510
     CP-SCF ITERATION  19:      0.000022451049
     CP-SCF ITERATION  20:      0.000038079235
     CP-SCF ITERATION  21:      0.000014034350
     CP-SCF ITERATION  22:      0.000007546693
     CP-SCF ITERATION  23:      0.000001441642
     CP-SCF ITERATION  24:      0.000000861846
     CP-SCF ITERATION  25:      0.000001099291
     CP-SCF ITERATION  26:      0.000001555047
     CP-SCF ITERATION  27:      0.000005888214
     CP-SCF ITERATION  28:      0.000000941161
     CP-SCF ITERATION  29:      0.000000759480
     CP-SCF ITERATION  30:      0.000000327999
     CP-SCF ITERATION  31:      0.000000305759
     CP-SCF ITERATION  32:      0.000000307410
     CP-SCF ITERATION  33:      0.016507397961
     CP-SCF ITERATION  34:      0.000001327955
     CP-SCF ITERATION  35:      0.000000160044
     CP-SCF ITERATION  36:      0.000000064235
     CP-SCF ITERATION  37:      0.000000049275
     CP-SCF ITERATION  38:      0.000000064111
     CP-SCF ITERATION  39:      0.000002122199
     CP-SCF ITERATION  40:      0.000003874871
     CP-SCF ITERATION  41:      0.000000121635
     CP-SCF ITERATION  42:      0.000000100680
     CP-SCF ITERATION  43:      0.000000149603
     CP-SCF ITERATION  44:      0.000000421251
     CP-SCF ITERATION  45:      0.000000018606
     CP-SCF ITERATION  46:      0.000000023971
     CP-SCF ITERATION  47:      0.000000067999
     CP-SCF ITERATION  48:      0.000000935803
     CP-SCF ITERATION  49:      0.000000017321
     CP-SCF ITERATION  50:      0.000000017997
     CP-SCF ITERATION  51:      0.000000040590
     CP-SCF ITERATION  52:      0.000001347920
     CP-SCF ITERATION  53:      0.000000051300
     CP-SCF ITERATION  54:      0.000000069492
     CP-SCF ITERATION  55:      0.000000258755
     CP-SCF ITERATION  56:      0.000000007139

                                                 ... done   (    269.2 sec)
Forming perturbed density Hessian contributions  ... done   (      0.0 sec)
Making the perturbed densities                   ... done   (      0.0 sec)
2nd integral derivative contribs (RI)            ... done   (      2.4 sec)
Exchange-correlation Hessian                     ... done   (      9.8 sec)
Dispersion correction in the Hessian             ... done   (      0.6 sec)
SRB correction in the Hessian                    ... done   (      0.0 sec)
Dipol derivatives                                ... done   (      0.3 sec)

Total SCF Hessian time: 0 days 0 hours 4 min 57 sec 

Writing the Hessian file to the disk             ... done


Maximum memory used throughout the entire calculation: 157.9 MB

-----------------------
VIBRATIONAL FREQUENCIES
-----------------------

Scaling factor for frequencies =  1.000000000  (already applied!)

   0:         0.00 cm**-1
   1:         0.00 cm**-1
   2:         0.00 cm**-1
   3:         0.00 cm**-1
   4:         0.00 cm**-1
   5:         0.00 cm**-1
   6:       -79.46 cm**-1 ***imaginary mode***
   7:        53.96 cm**-1
   8:       118.94 cm**-1
   9:       129.99 cm**-1
  10:       170.89 cm**-1
  11:       183.94 cm**-1
  12:       191.19 cm**-1
  13:       231.43 cm**-1
  14:       240.85 cm**-1
  15:       270.21 cm**-1
  16:       377.69 cm**-1
  17:       407.38 cm**-1
  18:       479.93 cm**-1
  19:       490.01 cm**-1
  20:       692.94 cm**-1
  21:       702.10 cm**-1
  22:       720.54 cm**-1
  23:       727.13 cm**-1


------------
NORMAL MODES
------------

These modes are the Cartesian displacements weighted by the diagonal matrix
M(i,i)=1/sqrt(m[i]) where m[i] is the mass of the displaced atom
Thus, these vectors are normalized but *not* orthogonal

                  0          1          2          3          4          5    
      0       0.000000   0.000000   0.000000   0.000000   0.000000   0.000000
      1       0.000000   0.000000   0.000000   0.000000   0.000000   0.000000
      2       0.000000   0.000000   0.000000   0.000000   0.000000   0.000000
      3       0.000000   0.000000   0.000000   0.000000   0.000000   0.000000
      4       0.000000   0.000000   0.000000   0.000000   0.000000   0.000000
      5       0.000000   0.000000   0.000000   0.000000   0.000000   0.000000
      6       0.000000   0.000000   0.000000   0.000000   0.000000   0.000000
      7       0.000000   0.000000   0.000000   0.000000   0.000000   0.000000
      8       0.000000   0.000000   0.000000   0.000000   0.000000   0.000000
      9       0.000000   0.000000   0.000000   0.000000   0.000000   0.000000
     10       0.000000   0.000000   0.000000   0.000000   0.000000   0.000000
     11       0.000000   0.000000   0.000000   0.000000   0.000000   0.000000
     12       0.000000   0.000000   0.000000   0.000000   0.000000   0.000000
     13       0.000000   0.000000   0.000000   0.000000   0.000000   0.000000
     14       0.000000   0.000000   0.000000   0.000000   0.000000   0.000000
     15       0.000000   0.000000   0.000000   0.000000   0.000000   0.000000
     16       0.000000   0.000000   0.000000   0.000000   0.000000   0.000000
     17       0.000000   0.000000   0.000000   0.000000   0.000000   0.000000
     18       0.000000   0.000000   0.000000   0.000000   0.000000   0.000000
     19       0.000000   0.000000   0.000000   0.000000   0.000000   0.000000
     20       0.000000   0.000000   0.000000   0.000000   0.000000   0.000000
     21       0.000000   0.000000   0.000000   0.000000   0.000000   0.000000
     22       0.000000   0.000000   0.000000   0.000000   0.000000   0.000000
     23       0.000000   0.000000   0.000000   0.000000   0.000000   0.000000
                  6          7          8          9         10         11    
      0       0.000283  -0.000181  -0.000952   0.435984  -0.418181  -0.003238
      1      -0.000069   0.000003  -0.000254   0.176480   0.032589  -0.000420
      2       0.269052  -0.350199  -0.493558  -0.001042   0.000301  -0.382343
      3      -0.000040   0.000121   0.000044  -0.015452   0.062745  -0.000942
      4      -0.000156  -0.000011   0.000129  -0.098237   0.317880   0.000504
      5       0.000792   0.061096  -0.003209  -0.000049  -0.000274   0.457174
      6       0.000030   0.000107  -0.000013  -0.015451  -0.062745   0.000993
      7       0.000145  -0.000033   0.000171  -0.098237  -0.317880  -0.000565
      8      -0.000781   0.061114  -0.003180   0.000039   0.000343  -0.457205
      9      -0.000294  -0.000138   0.000852  -0.356749   0.447583  -0.002033
     10       0.000023   0.000083  -0.000587   0.313254  -0.135500   0.001306
     11      -0.270432  -0.336664   0.506358   0.001141   0.000213  -0.380485
     12       0.000094  -0.000021   0.000086  -0.034553  -0.018652  -0.000059
     13      -0.000002  -0.000006   0.000417  -0.205645   0.006252  -0.000360
     14      -0.595347   0.510193  -0.003513  -0.000008  -0.000682   0.001837
     15      -0.000132  -0.000035   0.000059  -0.034552   0.018652   0.000068
     16       0.000027  -0.000003   0.000423  -0.205643  -0.006253   0.000261
     17       0.595374   0.510149  -0.003563  -0.000076   0.000485  -0.001755
     18       0.000277  -0.000195   0.000851  -0.356748  -0.447583   0.001902
     19      -0.000014   0.000086  -0.000563   0.313253   0.135501  -0.001098
     20       0.270445  -0.336699   0.506311   0.001091  -0.000176   0.380546
     21      -0.000199  -0.000090  -0.000987   0.435985   0.418180   0.003214
     22       0.000067  -0.000035  -0.000303   0.176481  -0.032590   0.000489
     23      -0.269124  -0.350194  -0.493560  -0.001076  -0.000340   0.382288
                 12         13         14         15         16         17    
      0       0.480777  -0.000829   0.347695   0.133403  -0.064707   0.160442
      1       0.116524  -0.000575   0.333660   0.380708  -0.083365  -0.139286
      2      -0.001335  -0.272673  -0.000587  -0.000106  -0.000027  -0.000044
      3       0.190815   0.000417  -0.151393  -0.335104  -0.007526  -0.023772
      4      -0.046332  -0.000121   0.024962   0.055289  -0.042077  -0.136888
      5       0.001678   0.351978   0.000633  -0.000024   0.000009  -0.000004
      6      -0.190815   0.000352  -0.151385   0.335110   0.007526  -0.023778
      7       0.046332  -0.000010   0.024960  -0.055293   0.042075  -0.136887
      8      -0.001708   0.351942   0.000571   0.000075   0.000017  -0.000021
      9       0.380093  -0.000672   0.216896  -0.000586   0.034256  -0.196849
     10      -0.257318   0.000851  -0.425153  -0.401121  -0.101610  -0.080673
     11      -0.001410  -0.262736  -0.000596  -0.000064   0.000015   0.000038
     12       0.013115   0.000382  -0.126789  -0.042269   0.680054   0.105154
     13       0.076519   0.000008   0.019301  -0.243331  -0.114293   0.615823
     14       0.000035  -0.482440  -0.000586  -0.000025   0.000075   0.000034
     15      -0.013114   0.000444  -0.126787   0.042273  -0.680055   0.105163
     16      -0.076522  -0.000074   0.019316   0.243338   0.114301   0.615823
     17       0.000022  -0.482458  -0.000661  -0.000038  -0.000125  -0.000006
     18      -0.380095  -0.000616   0.216893   0.000577  -0.034258  -0.196847
     19       0.257321   0.000769  -0.425141   0.401138   0.101610  -0.080675
     20       0.001359  -0.262713  -0.000504   0.000051  -0.000048   0.000047
     21      -0.480777  -0.000930   0.347691  -0.133415   0.064709   0.160444
     22      -0.116523  -0.000604   0.333649  -0.380724   0.083363  -0.139286
     23       0.001416  -0.272635  -0.000548   0.000034   0.000033   0.000002
                 18         19         20         21         22         23    
      0       0.077223   0.029041  -0.251516  -0.245152  -0.245211   0.222523
      1      -0.098367  -0.112316   0.407855   0.407833   0.386673  -0.387536
      2      -0.000018  -0.000031   0.000206   0.000211   0.000211  -0.000185
      3       0.163679   0.091337   0.218219  -0.036619   0.247854   0.048652
      4      -0.027670  -0.015470  -0.039527  -0.246332  -0.037054   0.275888
      5       0.000046   0.000074  -0.000132  -0.000012  -0.000104   0.000010
      6       0.163679  -0.091337   0.218222   0.036616  -0.247856   0.048631
      7      -0.027670   0.015469  -0.039524   0.246334   0.037032   0.275890
      8       0.000047  -0.000064  -0.000109  -0.000023   0.000084  -0.000022
      9       0.104384   0.063776  -0.363746   0.351981  -0.370777  -0.344933
     10       0.066368   0.095864  -0.297705   0.295969  -0.295604  -0.300898
     11       0.000011  -0.000043   0.000176  -0.000168   0.000162   0.000156
     12      -0.654948  -0.112734  -0.015802   0.007510  -0.008725  -0.018282
     13       0.112021  -0.672307   0.004152  -0.002391  -0.051200  -0.109410
     14      -0.000113  -0.000018   0.000009   0.000042   0.000003  -0.000009
     15      -0.654946   0.112733  -0.015800  -0.007510   0.008725  -0.018281
     16       0.112017   0.672306   0.004162   0.002390   0.051202  -0.109396
     17      -0.000139   0.000004  -0.000000  -0.000040  -0.000002   0.000003
     18       0.104384  -0.063767  -0.363755  -0.351978   0.370801  -0.344901
     19       0.066367  -0.095852  -0.297712  -0.295966   0.295626  -0.300873
     20      -0.000016   0.000024   0.000192   0.000188  -0.000196   0.000172
     21       0.077223  -0.029047  -0.251516   0.245156   0.245190   0.222542
     22      -0.098367   0.112311   0.407855  -0.407839  -0.386636  -0.387565
     23       0.000005   0.000034   0.000117  -0.000132  -0.000118  -0.000102


-----------
IR SPECTRUM
-----------

 Mode    freq (cm**-1)   T**2         TX         TY         TZ
-------------------------------------------------------------------
   7:        53.96    3.062032  (  0.002241  -0.000358   1.749865)
   8:       118.94    0.006043  (  0.000478   0.005723  -0.077525)
   9:       129.99    3.718226  ( -0.260843  -1.910546  -0.000137)
  10:       170.89    0.000001  (  0.000038   0.000024   0.000733)
  11:       183.94    0.000002  (  0.001087  -0.000620  -0.000303)
  12:       191.19    0.000000  ( -0.000009   0.000015  -0.000274)
  13:       231.43   51.681689  (  0.012257  -0.001902   7.188987)
  14:       240.85   18.626393  ( -4.260294   0.689972   0.014985)
  15:       270.21    0.000000  (  0.000186  -0.000141   0.000522)
  16:       377.69    0.000000  (  0.000110  -0.000118   0.000237)
  17:       407.38   19.995118  ( -0.775921  -4.403756  -0.000352)
  18:       479.93  184.163707  ( 13.382016  -2.255070   0.003976)
  19:       490.01    0.000000  (  0.000441  -0.000491   0.000219)
  20:       692.94  351.648418  ( 18.460007  -3.297956  -0.006352)
  21:       702.10    0.000002  ( -0.000133   0.000018  -0.001235)
  22:       720.54    0.000001  (  0.000034  -0.000733  -0.000693)
  23:       727.13  291.832092  (  3.019004  16.814211  -0.000219)

The first frequency considered to be a vibration is 7
The total number of vibrations considered is 17


--------------------------
THERMOCHEMISTRY AT 298.15K
--------------------------

Temperature         ... 298.15 K
Pressure            ... 1.00 atm
Total Mass          ... 223.87 AMU

Throughout the following assumptions are being made:
  (1) The electronic state is orbitally nondegenerate
      but the spin degeneracy is treated
  (2) There are no thermally accessible electronically excited states
  (3) Hindered rotations indicated by low frequency modes are not
      treated as such but are treated as vibrations and this may
      cause some error
  (4) All equations used are the standard statistical mechanics
      equations for an ideal gas
  (5) All vibrations are strictly harmonic

freq.      53.96  E(vib)   ...       0.52 
freq.     118.94  E(vib)   ...       0.44 
freq.     129.99  E(vib)   ...       0.43 
freq.     170.89  E(vib)   ...       0.38 
freq.     183.94  E(vib)   ...       0.37 
freq.     191.19  E(vib)   ...       0.36 
freq.     231.43  E(vib)   ...       0.32 
freq.     240.85  E(vib)   ...       0.31 
freq.     270.21  E(vib)   ...       0.29 
freq.     377.69  E(vib)   ...       0.21 
freq.     407.38  E(vib)   ...       0.19 
freq.     479.93  E(vib)   ...       0.15 
freq.     490.01  E(vib)   ...       0.15 
freq.     692.94  E(vib)   ...       0.07 
freq.     702.10  E(vib)   ...       0.07 
freq.     720.54  E(vib)   ...       0.07 
freq.     727.13  E(vib)   ...       0.06 

------------
INNER ENERGY
------------

The inner energy is: U= E(el) + E(ZPE) + E(vib) + E(rot) + E(trans)
    E(el)   - is the total energy from the electronic structure calculation
              = E(kin-el) + E(nuc-el) + E(el-el) + E(nuc-nuc)
    E(ZPE)  - the the zero temperature vibrational energy from the frequency calculation
    E(vib)  - the the finite temperature correction to E(ZPE) due to population
              of excited vibrational states
    E(rot)  - is the rotational thermal energy
    E(trans)- is the translational thermal energy

Summary of contributions to the inner energy U:
Electronic energy                ...  -2901.48467767 Eh
Zero point energy                ...      0.01409982 Eh       8.85 kcal/mol
Thermal vibrational correction   ...      0.00698395 Eh       4.38 kcal/mol
Thermal rotational correction    ...      0.00141627 Eh       0.89 kcal/mol
Thermal translational correction ...      0.00141627 Eh       0.89 kcal/mol
-----------------------------------------------------------------------
Total thermal energy                  -2901.46076136 Eh


Summary of corrections to the electronic energy:
(perhaps to be used in another calculation)
Total thermal correction                  0.00981649 Eh       6.16 kcal/mol
Non-thermal (ZPE) correction              0.01409982 Eh       8.85 kcal/mol
-----------------------------------------------------------------------
Total correction                          0.02391631 Eh      15.01 kcal/mol


--------
ENTHALPY
--------

The enthalpy is H = U + kB*T
                kB is Boltzmann's constant
Total free energy                 ...  -2901.46076136 Eh 
Thermal Enthalpy correction       ...      0.00094421 Eh       0.59 kcal/mol
-----------------------------------------------------------------------
Total Enthalpy                    ...  -2901.45981715 Eh


Note: Only C1 symmetry has been detected, increase convergence thresholds 
      if your molecule has a higher symmetry. Symmetry factor of 1.0 is   
      used for the rotational entropy correction. 
 

Note: Rotational entropy computed according to Herzberg 
Infrared and Raman Spectra, Chapter V,1, Van Nostrand Reinhold, 1945 
Point Group:  C1, Symmetry Number:   1  
Rotational constants in cm-1:     0.092584     0.021478     0.017433 

Vibrational entropy computed according to the QRRHO of S. Grimme
Chem.Eur.J. 2012 18 9955


-------
ENTROPY
-------

The entropy contributions are T*S = T*(S(el)+S(vib)+S(rot)+S(trans))
     S(el)   - electronic entropy
     S(vib)  - vibrational entropy
     S(rot)  - rotational entropy
     S(trans)- translational entropy
The entropies will be listed as mutliplied by the temperature to get
units of energy

Electronic entropy                ...      0.00151960 Eh      0.95 kcal/mol
Vibrational entropy               ...      0.01242114 Eh      7.79 kcal/mol
Rotational entropy                ...      0.01435906 Eh      9.01 kcal/mol
Translational entropy             ...      0.02001260 Eh     12.56 kcal/mol
-----------------------------------------------------------------------
Final entropy term                ...      0.04831239 Eh     30.32 kcal/mol

In case the symmetry of your molecule has not been determined correctly
or in case you have a reason to use a different symmetry number we print 
out the resulting rotational entropy values for sn=1,12 :
 --------------------------------------------------------
|  sn= 1 | S(rot)=       0.01435906 Eh      9.01 kcal/mol|
|  sn= 2 | S(rot)=       0.01370460 Eh      8.60 kcal/mol|
|  sn= 3 | S(rot)=       0.01332177 Eh      8.36 kcal/mol|
|  sn= 4 | S(rot)=       0.01305014 Eh      8.19 kcal/mol|
|  sn= 5 | S(rot)=       0.01283946 Eh      8.06 kcal/mol|
|  sn= 6 | S(rot)=       0.01266731 Eh      7.95 kcal/mol|
|  sn= 7 | S(rot)=       0.01252177 Eh      7.86 kcal/mol|
|  sn= 8 | S(rot)=       0.01239569 Eh      7.78 kcal/mol|
|  sn= 9 | S(rot)=       0.01228448 Eh      7.71 kcal/mol|
|  sn=10 | S(rot)=       0.01218500 Eh      7.65 kcal/mol|
|  sn=11 | S(rot)=       0.01209501 Eh      7.59 kcal/mol|
|  sn=12 | S(rot)=       0.01201285 Eh      7.54 kcal/mol|
 --------------------------------------------------------


-------------------
GIBBS FREE ENERGY
-------------------

The Gibbs free energy is G = H - T*S

Total enthalpy                    ...  -2901.45981715 Eh 
Total entropy correction          ...     -0.04831239 Eh    -30.32 kcal/mol
-----------------------------------------------------------------------
Final Gibbs free energy         ...  -2901.50812954 Eh

For completeness - the Gibbs free energy minus the electronic energy
G-E(el)                           ...     -0.02345187 Eh    -14.72 kcal/mol


Timings for individual modules:

Sum of individual times         ...      494.940 sec (=   8.249 min)
GTO integral calculation        ...        6.649 sec (=   0.111 min)   1.3 %
SCF iterations                  ...      158.497 sec (=   2.642 min)  32.0 %
SCF Gradient evaluation         ...       31.000 sec (=   0.517 min)   6.3 %
Geometry relaxation             ...        0.521 sec (=   0.009 min)   0.1 %
Analytical frequency calculation...      298.272 sec (=   4.971 min)  60.3 %
                             ****ORCA TERMINATED NORMALLY****
TOTAL RUN TIME: 0 days 0 hours 8 minutes 16 seconds 408 msec
