
                                 *****************
                                 * O   R   C   A *
                                 *****************

           --- An Ab Initio, DFT and Semiempirical electronic structure package ---

                  #######################################################
                  #                        -***-                        #
                  #          Department of theory and spectroscopy      #
                  #               Directorship: Frank Neese             #
                  #        Max Planck Institute fuer Kohlenforschung    #
                  #                Kaiser Wilhelm Platz 1               #
                  #                 D-45470 Muelheim/Ruhr               #
                  #                      Germany                        #
                  #                                                     #
                  #                  All rights reserved                #
                  #                        -***-                        #
                  #######################################################


                         Program Version 4.2.1 -  RELEASE  -


 With contributions from (in alphabetic order):
   Daniel Aravena         : Magnetic Suceptibility
   Michael Atanasov       : Ab Initio Ligand Field Theory (pilot matlab implementation)
   Alexander A. Auer      : GIAO ZORA, VPT2
   Ute Becker             : Parallelization
   Giovanni Bistoni       : ED, misc. LED, open-shell LED, HFLD
   Martin Brehm           : Molecular dynamics
   Dmytro Bykov           : SCF Hessian
   Vijay G. Chilkuri      : MRCI spin determinant printing, contributions to CSF-ICE
   Dipayan Datta          : RHF DLPNO-CCSD density
   Achintya Kumar Dutta   : EOM-CC, STEOM-CC
   Dmitry Ganyushin       : Spin-Orbit,Spin-Spin,Magnetic field MRCI
   Miquel Garcia          : C-PCM Hessian, Gaussian charge scheme
   Yang Guo               : DLPNO-NEVPT2, CIM, IAO-localization
   Andreas Hansen         : Spin unrestricted coupled pair/coupled cluster methods
   Benjamin Helmich-Paris : CASSCF linear response (MC-RPA)
   Lee Huntington         : MR-EOM, pCC
   Robert Izsak           : Overlap fitted RIJCOSX, COSX-SCS-MP3, EOM
   Christian Kollmar      : KDIIS, OOCD, Brueckner-CCSD(T), CCSD density
   Simone Kossmann        : Meta GGA functionals, TD-DFT gradient, OOMP2, MP2 Hessian
   Martin Krupicka        : AUTO-CI
   Lucas Lang             : DCDCAS
   Dagmar Lenk            : GEPOL surface, SMD
   Dimitrios Liakos       : Extrapolation schemes; Compound Job, initial MDCI parallelization
   Dimitrios Manganas     : Further ROCIS development; embedding schemes
   Dimitrios Pantazis     : SARC Basis sets
   Taras Petrenko         : DFT Hessian,TD-DFT gradient, ASA, ECA, R-Raman, ABS, FL, XAS/XES, NRVS
   Peter Pinski           : DLPNO-MP2, DLPNO-MP2 Gradient
   Christoph Reimann      : Effective Core Potentials
   Marius Retegan         : Local ZFS, SOC
   Christoph Riplinger    : Optimizer, TS searches, QM/MM, DLPNO-CCSD(T), (RO)-DLPNO pert. Triples
   Tobias Risthaus        : Range-separated hybrids, TD-DFT gradient, RPA, STAB
   Michael Roemelt        : Original ROCIS implementation
   Masaaki Saitow         : Open-shell DLPNO-CCSD energy and density
   Barbara Sandhoefer     : DKH picture change effects
   Avijit Sen             : IP-ROCIS
   Kantharuban Sivalingam : CASSCF convergence, NEVPT2, FIC-MRCI
   Bernardo de Souza      : ESD, SOC TD-DFT
   Georgi Stoychev        : AutoAux, RI-MP2 NMR
   Willem Van den Heuvel  : Paramagnetic NMR
   Boris Wezisla          : Elementary symmetry handling
   Frank Wennmohs         : Technical directorship


 We gratefully acknowledge several colleagues who have allowed us to
 interface, adapt or use parts of their codes:
   Stefan Grimme, W. Hujo, H. Kruse,             : VdW corrections, initial TS optimization,
                  C. Bannwarth                     DFT functionals, gCP, sTDA/sTD-DF
   Ed Valeev, F. Pavosevic, A. Kumar             : LibInt (2-el integral package), F12 methods
   Garnet Chan, S. Sharma, J. Yang, R. Olivares  : DMRG
   Ulf Ekstrom                                   : XCFun DFT Library
   Mihaly Kallay                                 : mrcc  (arbitrary order and MRCC methods)
   Andreas Klamt, Michael Diedenhofen            : otool_cosmo (COSMO solvation model)
   Jiri Pittner, Ondrej Demel                    : Mk-CCSD
   Frank Weinhold                                : gennbo (NPA and NBO analysis)
   Christopher J. Cramer and Donald G. Truhlar   : smd solvation model
   Lars Goerigk                                  : TD-DFT with DH, B97 family of functionals
   V. Asgeirsson, H. Jonsson                     : NEB implementation
   FAccTs GmbH                                   : IRC, NEB, NEB-TS, Multilevel, MM, QM/MM, CI optimization
   S Lehtola, MJT Oliveira, MAL Marques          : LibXC Library


 Your calculation uses the libint2 library for the computation of 2-el integrals
 For citations please refer to: http://libint.valeyev.net

 Your ORCA version has been built with support for libXC version: 4.2.3
 For citations please refer to: https://tddft.org/programs/libxc/

 This ORCA versions uses:
   CBLAS   interface :  Fast vector & matrix operations
   LAPACKE interface :  Fast linear algebra routines
   SCALAPACK package :  Parallel linear algebra routines




***************************************
The coordinates will be read from file: n-hexane.xyz
***************************************


Your calculation utilizes the geometrical counterpoise correction gCP
Please cite in your paper:
H.Kruse, S. Grimme J.Chem.Phys., 136, (2012), 154101 
   

Your calculation utilizes the atom-pairwise dispersion correction
based on tight binding partial charges (D4)
Cite in your paper:
E.Caldeweyher, C.Bannwarth, S.Grimme, J.Chem.Phys., (2017), 147, 034112.
E.Caldeweyher, S.Ehlert, A.Hansen, H.Neugebauer, S.Grimme, J.Chem.Phys., (2018), in progress.
   

----- Orbital basis set information -----
Your calculation utilizes the basis: def2-TZVP
   F. Weigend and R. Ahlrichs, Phys. Chem. Chem. Phys. 7, 3297 (2005).

----- AuxJ basis set information -----
Your calculation utilizes the auxiliary basis: def2/J
   F. Weigend, Phys. Chem. Chem. Phys. 8, 1057 (2006).

================================================================================
                                        WARNINGS
                       Please study these warnings very carefully!
================================================================================


WARNING: Geometry Optimization
  ===> : Switching off AutoStart
         For restart on a previous wavefunction, please use MOREAD

INFO   : the flag for use of LIBINT has been found!

================================================================================
                                       INPUT FILE
================================================================================
NAME = n-hexane.inp
|  1> ! revPBE D4 gCP(DFT/TZ) def2-TZVP Opt Freq TightOpt TightSCF Grid4 FinalGrid5
|  2> 
|  3> %pal
|  4>  nprocs 8
|  5> end
|  6> 
|  7> *xyzfile 0 1 n-hexane.xyz
|  8> 
|  9>                          ****END OF INPUT****
================================================================================

                       *****************************
                       * Geometry Optimization Run *
                       *****************************

Geometry optimization settings:
Update method            Update   .... BFGS
Choice of coordinates    CoordSys .... Z-matrix Internals
Initial Hessian          InHess   .... Almoef's Model

Convergence Tolerances:
Energy Change            TolE     ....  1.0000e-06 Eh
Max. Gradient            TolMAXG  ....  1.0000e-04 Eh/bohr
RMS Gradient             TolRMSG  ....  3.0000e-05 Eh/bohr
Max. Displacement        TolMAXD  ....  1.0000e-03 bohr
RMS Displacement         TolRMSD  ....  6.0000e-04 bohr
Strict Convergence                ....  False
------------------------------------------------------------------------------
                        ORCA OPTIMIZATION COORDINATE SETUP
------------------------------------------------------------------------------

The optimization will be done in new redundant internal coordinates
Making redundant internal coordinates   ...  (new redundants) done
Evaluating the initial hessian          ...  (Almloef) done
Evaluating the coordinates              ...  done
Calculating the B-matrix                .... done
Calculating the G-matrix                .... done
Diagonalizing the G-matrix              .... done
Small eigenvalue found = 1.382e-02
The first mode is                       ....   46
The number of degrees of freedom        ....   54

    -----------------------------------------------------------------
                    Redundant Internal Coordinates


    -----------------------------------------------------------------
         Definition                    Initial Value    Approx d2E/dq
    -----------------------------------------------------------------
      1. B(C   1,C   0)                  1.5298         0.373892   
      2. B(H   2,C   0)                  1.0949         0.353637   
      3. B(H   3,C   0)                  1.0960         0.352213   
      4. B(H   4,C   0)                  1.0960         0.352201   
      5. B(H   5,C   1)                  1.0978         0.349906   
      6. B(H   6,C   1)                  1.0978         0.349903   
      7. B(C   7,C   1)                  1.5298         0.373888   
      8. B(H   8,C   7)                  1.0989         0.348477   
      9. B(C   9,C   7)                  1.5291         0.374826   
     10. B(H  10,C   7)                  1.0989         0.348469   
     11. B(H  11,C   9)                  1.0989         0.348469   
     12. B(H  12,C   9)                  1.0989         0.348477   
     13. B(C  13,C   9)                  1.5298         0.373888   
     14. B(H  14,C  13)                  1.0978         0.349904   
     15. B(C  15,C  13)                  1.5298         0.373892   
     16. B(H  16,C  13)                  1.0978         0.349906   
     17. B(H  17,C  15)                  1.0960         0.352201   
     18. B(H  18,C  15)                  1.0960         0.352213   
     19. B(H  19,C  15)                  1.0949         0.353637   
     20. A(C   1,C   0,H   3)          110.8544         0.323187   
     21. A(C   1,C   0,H   2)          111.5160         0.323401   
     22. A(H   3,C   0,H   4)          107.6893         0.288825   
     23. A(H   2,C   0,H   4)          107.8815         0.289007   
     24. A(C   1,C   0,H   4)          110.8569         0.323185   
     25. A(H   2,C   0,H   3)          107.8872         0.289009   
     26. A(C   0,C   1,H   5)          109.6054         0.322839   
     27. A(C   0,C   1,C   7)          112.7605         0.363456   
     28. A(H   6,C   1,C   7)          109.1325         0.322838   
     29. A(H   5,C   1,C   7)          109.1308         0.322839   
     30. A(C   0,C   1,H   6)          109.6108         0.322839   
     31. A(H   5,C   1,H   6)          106.3984         0.288232   
     32. A(C   1,C   7,C   9)          113.2644         0.363611   
     33. A(H   8,C   7,C   9)          109.2966         0.322755   
     34. A(C   1,C   7,H   8)          109.2025         0.322622   
     35. A(C   9,C   7,H  10)          109.2953         0.322753   
     36. A(H   8,C   7,H  10)          106.3488         0.287863   
     37. A(C   1,C   7,H  10)          109.1996         0.322621   
     38. A(H  12,C   9,C  13)          109.2025         0.322622   
     39. A(H  11,C   9,C  13)          109.1996         0.322621   
     40. A(C   7,C   9,C  13)          113.2644         0.363611   
     41. A(H  11,C   9,H  12)          106.3489         0.287863   
     42. A(C   7,C   9,H  12)          109.2966         0.322755   
     43. A(C   7,C   9,H  11)          109.2953         0.322753   
     44. A(C  15,C  13,H  16)          109.6054         0.322839   
     45. A(H  14,C  13,H  16)          106.3984         0.288232   
     46. A(C   9,C  13,H  16)          109.1308         0.322839   
     47. A(H  14,C  13,C  15)          109.6108         0.322839   
     48. A(C   9,C  13,C  15)          112.7605         0.363456   
     49. A(C   9,C  13,H  14)          109.1325         0.322838   
     50. A(C  13,C  15,H  17)          110.8569         0.323185   
     51. A(H  18,C  15,H  19)          107.8871         0.289009   
     52. A(H  17,C  15,H  19)          107.8816         0.289007   
     53. A(C  13,C  15,H  19)          111.5160         0.323401   
     54. A(H  17,C  15,H  18)          107.6893         0.288825   
     55. A(C  13,C  15,H  18)          110.8544         0.323187   
     56. D(H   6,C   1,C   0,H   4)     61.9946         0.011161   
     57. D(C   7,C   1,C   0,H   3)     59.7496         0.011161   
     58. D(H   6,C   1,C   0,H   3)   -178.4608         0.011161   
     59. D(C   7,C   1,C   0,H   4)    -59.7950         0.011161   
     60. D(H   6,C   1,C   0,H   2)    -58.2304         0.011161   
     61. D(H   5,C   1,C   0,H   4)    178.4213         0.011161   
     62. D(H   5,C   1,C   0,H   3)    -62.0342         0.011161   
     63. D(H   5,C   1,C   0,H   2)     58.1963         0.011161   
     64. D(C   7,C   1,C   0,H   2)    179.9800         0.011161   
     65. D(C   9,C   7,C   1,H   5)    -57.9572         0.011161   
     66. D(H   8,C   7,C   1,H   6)    179.9803         0.011161   
     67. D(H   8,C   7,C   1,C   0)    -57.9602         0.011161   
     68. D(C   9,C   7,C   1,C   0)    179.9913         0.011161   
     69. D(C   9,C   7,C   1,H   6)     57.9317         0.011161   
     70. D(H  10,C   7,C   1,H   6)    -64.1130         0.011161   
     71. D(H  10,C   7,C   1,H   5)    179.9981         0.011161   
     72. D(H  10,C   7,C   1,C   0)     57.9466         0.011161   
     73. D(H   8,C   7,C   1,H   5)     64.0914         0.011161   
     74. D(C  13,C   9,C   7,H   8)     58.0041         0.011214   
     75. D(C  13,C   9,C   7,C   1)   -179.9999         0.011214   
     76. D(H  12,C   9,C   7,H  10)     63.9874         0.011214   
     77. D(H  12,C   9,C   7,H   8)   -179.9999         0.011214   
     78. D(H  12,C   9,C   7,C   1)    -58.0039         0.011214   
     79. D(H  11,C   9,C   7,H   8)    -63.9872         0.011214   
     80. D(H  11,C   9,C   7,H  10)   -179.9999         0.011214   
     81. D(C  13,C   9,C   7,H  10)    -58.0086         0.011214   
     82. D(H  11,C   9,C   7,C   1)     58.0088         0.011214   
     83. D(C  15,C  13,C   9,C   7)   -179.9912         0.011161   
     84. D(H  14,C  13,C   9,H  12)   -179.9802         0.011161   
     85. D(H  14,C  13,C   9,H  11)     64.1131         0.011161   
     86. D(H  14,C  13,C   9,C   7)    -57.9316         0.011161   
     87. D(H  16,C  13,C   9,H  12)    -64.0912         0.011161   
     88. D(H  16,C  13,C   9,H  11)   -179.9980         0.011161   
     89. D(H  16,C  13,C   9,C   7)     57.9573         0.011161   
     90. D(C  15,C  13,C   9,H  12)     57.9603         0.011161   
     91. D(C  15,C  13,C   9,H  11)    -57.9465         0.011161   
     92. D(H  19,C  15,C  13,H  16)    -58.1963         0.011161   
     93. D(H  19,C  15,C  13,H  14)     58.2304         0.011161   
     94. D(H  19,C  15,C  13,C   9)   -179.9800         0.011161   
     95. D(H  18,C  15,C  13,H  16)     62.0341         0.011161   
     96. D(H  18,C  15,C  13,H  14)    178.4608         0.011161   
     97. D(H  18,C  15,C  13,C   9)    -59.7496         0.011161   
     98. D(H  17,C  15,C  13,H  16)   -178.4213         0.011161   
     99. D(H  17,C  15,C  13,H  14)    -61.9946         0.011161   
    100. D(H  17,C  15,C  13,C   9)     59.7950         0.011161   
    -----------------------------------------------------------------

Number of atoms                         .... 20
Number of degrees of freedom            .... 100

         *************************************************************
         *                GEOMETRY OPTIMIZATION CYCLE   1            *
         *************************************************************
---------------------------------
CARTESIAN COORDINATES (ANGSTROEM)
---------------------------------
  C     -3.621829    0.705839    0.943118
  C     -2.108293    0.799630    0.741619
  H     -3.934883   -0.320115    1.162860
  H     -4.156224    1.035784    0.044878
  H     -3.944865    1.341807    1.775280
  H     -1.803729    0.134441   -0.076896
  H     -1.593691    0.439046    1.641825
  C     -1.639484    2.222526    0.432125
  H     -2.153689    2.584515   -0.469100
  C     -0.127765    2.329527    0.228726
  H     -1.943833    2.889421    1.250836
  H      0.176584    1.662634   -0.589985
  H      0.386440    1.967538    1.129951
  C      0.341044    3.752424   -0.080766
  H     -0.173559    4.113011   -0.980970
  C      1.854580    3.846215   -0.282267
  H      0.036482    4.417611    0.737752
  H      2.177614    3.210249   -1.114430
  H      2.388977    3.516268    0.615972
  H      2.167634    4.872170   -0.502007

----------------------------
CARTESIAN COORDINATES (A.U.)
----------------------------
  NO LB      ZA    FRAG     MASS         X           Y           Z
   0 C     6.0000    0    12.011   -6.844266    1.333843    1.782236
   1 C     6.0000    0    12.011   -3.984095    1.511082    1.401458
   2 H     1.0000    0     1.008   -7.435852   -0.604931    2.197486
   3 H     1.0000    0     1.008   -7.854126    1.957349    0.084807
   4 H     1.0000    0     1.008   -7.454715    2.535647    3.354792
   5 H     1.0000    0     1.008   -3.408554    0.254057   -0.145313
   6 H     1.0000    0     1.008   -3.011639    0.829676    3.102600
   7 C     6.0000    0    12.011   -3.098176    4.199966    0.816598
   8 H     1.0000    0     1.008   -4.069882    4.884025   -0.886471
   9 C     6.0000    0    12.011   -0.241440    4.402169    0.432229
  10 H     1.0000    0     1.008   -3.673312    5.460214    2.363737
  11 H     1.0000    0     1.008    0.333696    3.141923   -1.114911
  12 H     1.0000    0     1.008    0.730266    3.718107    2.135298
  13 C     6.0000    0    12.011    0.644479    7.091054   -0.152625
  14 H     1.0000    0     1.008   -0.327979    7.772464   -1.853765
  15 C     6.0000    0    12.011    3.504648    7.268293   -0.533408
  16 H     1.0000    0     1.008    0.068940    8.348075    1.394149
  17 H     1.0000    0     1.008    4.115095    6.066491   -2.105968
  18 H     1.0000    0     1.008    4.514512    6.644783    1.164018
  19 H     1.0000    0     1.008    4.096235    9.207067   -0.948655

--------------------------------
INTERNAL COORDINATES (ANGSTROEM)
--------------------------------
 C      0   0   0     0.000000000000     0.00000000     0.00000000
 C      1   0   0     1.529768880910     0.00000000     0.00000000
 H      1   2   0     1.094930047033   111.51600945     0.00000000
 H      1   2   3     1.096028311733   110.85443341   239.76957196
 H      1   2   3     1.096037897632   110.85689702   120.22498394
 H      2   1   3     1.097817468046   109.60542907    58.19627659
 H      2   1   3     1.097819095656   109.61078067   301.76959151
 C      2   1   3     1.529771497557   112.76053282   179.97998627
 H      8   2   1     1.098931267951   109.20253680   302.03981799
 C      8   2   1     1.529090047924   113.26442699   179.99125185
 H      8   2   1     1.098937292838   109.19959761    57.94657198
 H     10   8   2     1.098937238315   109.29527722    58.00881213
 H     10   8   2     1.098931261992   109.29661726   301.99609808
 C     10   8   2     1.529771471589   113.26440083   180.00009569
 H     14  10   8     1.097819072442   109.13248113   302.06836843
 C     14  10   8     1.529768762822   112.76052347   180.00883512
 H     14  10   8     1.097817466925   109.13084251    57.95729891
 H     16  14  10     1.096037863615   110.85688313    59.79502094
 H     16  14  10     1.096028331345   110.85444763   300.25044065
 H     16  14  10     1.094930045080   111.51602298   180.02001143

---------------------------
INTERNAL COORDINATES (A.U.)
---------------------------
 C      0   0   0     0.000000000000     0.00000000     0.00000000
 C      1   0   0     2.890844233115     0.00000000     0.00000000
 H      1   2   0     2.069117924695   111.51600945     0.00000000
 H      1   2   3     2.071193344200   110.85443341   239.76957196
 H      1   2   3     2.071211458923   110.85689702   120.22498394
 H      2   1   3     2.074574359642   109.60542907    58.19627659
 H      2   1   3     2.074577435379   109.61078067   301.76959151
 C      2   1   3     2.890849177861   112.76053282   179.97998627
 H      8   2   1     2.076679136430   109.20253680   302.03981799
 C      8   2   1     2.889561424682   113.26442699   179.99125185
 H      8   2   1     2.076690521817   109.19959761    57.94657198
 H     10   8   2     2.076690418783   109.29527722    58.00881213
 H     10   8   2     2.076679125169   109.29661726   301.99609808
 C     10   8   2     2.890849128789   113.26440083   180.00009569
 H     14  10   8     2.074577391512   109.13248113   302.06836843
 C     14  10   8     2.890844009962   112.76052347   180.00883512
 H     14  10   8     2.074574357523   109.13084251    57.95729891
 H     16  14  10     2.071211394641   110.85688313    59.79502094
 H     16  14  10     2.071193381261   110.85444763   300.25044065
 H     16  14  10     2.069117921003   111.51602298   180.02001143

---------------------
BASIS SET INFORMATION
---------------------
There are 2 groups of distinct atoms

 Group   1 Type C   : 11s6p2d1f contracted to 5s3p2d1f pattern {62111/411/11/1}
 Group   2 Type H   : 5s1p contracted to 3s1p pattern {311/1}

Atom   0C    basis set group =>   1
Atom   1C    basis set group =>   1
Atom   2H    basis set group =>   2
Atom   3H    basis set group =>   2
Atom   4H    basis set group =>   2
Atom   5H    basis set group =>   2
Atom   6H    basis set group =>   2
Atom   7C    basis set group =>   1
Atom   8H    basis set group =>   2
Atom   9C    basis set group =>   1
Atom  10H    basis set group =>   2
Atom  11H    basis set group =>   2
Atom  12H    basis set group =>   2
Atom  13C    basis set group =>   1
Atom  14H    basis set group =>   2
Atom  15C    basis set group =>   1
Atom  16H    basis set group =>   2
Atom  17H    basis set group =>   2
Atom  18H    basis set group =>   2
Atom  19H    basis set group =>   2
---------------------------------
AUXILIARY/J BASIS SET INFORMATION
---------------------------------
There are 2 groups of distinct atoms

 Group   1 Type C   : 12s5p4d2f1g contracted to 6s4p3d1f1g pattern {711111/2111/211/2/1}
 Group   2 Type H   : 5s2p1d contracted to 3s1p1d pattern {311/2/1}

Atom   0C    basis set group =>   1
Atom   1C    basis set group =>   1
Atom   2H    basis set group =>   2
Atom   3H    basis set group =>   2
Atom   4H    basis set group =>   2
Atom   5H    basis set group =>   2
Atom   6H    basis set group =>   2
Atom   7C    basis set group =>   1
Atom   8H    basis set group =>   2
Atom   9C    basis set group =>   1
Atom  10H    basis set group =>   2
Atom  11H    basis set group =>   2
Atom  12H    basis set group =>   2
Atom  13C    basis set group =>   1
Atom  14H    basis set group =>   2
Atom  15C    basis set group =>   1
Atom  16H    basis set group =>   2
Atom  17H    basis set group =>   2
Atom  18H    basis set group =>   2
Atom  19H    basis set group =>   2


           ************************************************************
           *        Program running with 8 parallel MPI-processes     *
           *              working on a common directory               *
           ************************************************************
------------------------------------------------------------------------------
                           ORCA GTO INTEGRAL CALCULATION
                           -- RI-GTO INTEGRALS CHOSEN --
------------------------------------------------------------------------------

                         BASIS SET STATISTICS AND STARTUP INFO

Gaussian basis set:
 # of primitive gaussian shells          ...  204
 # of primitive gaussian functions       ...  388
 # of contracted shells                  ...  122
 # of contracted basis functions         ...  270
 Highest angular momentum                ...    3
 Maximum contraction depth               ...    6
Auxiliary gaussian basis set:
 # of primitive gaussian shells          ...  256
 # of primitive gaussian functions       ...  644
 # of contracted shells                  ...  160
 # of contracted aux-basis functions     ...  448
 Highest angular momentum                ...    4
 Maximum contraction depth               ...    7
Ratio of auxiliary to basis functions    ...  1.66
Integral package used                  ... LIBINT
 One Electron integrals                  ... done
 Ordering auxiliary basis shells         ... done
 Integral threshhold             Thresh  ...  2.500e-11
 Primitive cut-off               TCut    ...  2.500e-12
 Pre-screening matrix                    ... done
 Shell pair data                         ... 
 Ordering of the shell pairs             ... done (   0.001 sec) 6701 of 7503 pairs
 Determination of significant pairs      ... done (   0.000 sec)
 Creation of shell pair data             ... done (   0.001 sec)
 Storage of shell pair data              ... done (   0.048 sec)
 Shell pair data done in (   0.050 sec)
 Computing two index integrals           ... done
 Cholesky decomposition of the V-matrix  ... done


Timings:
 Total evaluation time                   ...   0.252 sec (  0.004 min)
 One electron matrix time                ...   0.055 sec (  0.001 min) = 21.8%
 Schwartz matrix evaluation time         ...   0.111 sec (  0.002 min) = 44.1%
 Two index repulsion integral time       ...   0.006 sec (  0.000 min) =  2.4%
 Cholesky decomposition of V             ...   0.012 sec (  0.000 min) =  4.8%
 Three index repulsion integral time     ...   0.000 sec (  0.000 min) =  0.0%



           ************************************************************
           *        Program running with 8 parallel MPI-processes     *
           *              working on a common directory               *
           ************************************************************
-------------------------------------------------------------------------------
                                 ORCA SCF
-------------------------------------------------------------------------------

------------
SCF SETTINGS
------------
Hamiltonian:
 Density Functional     Method          .... DFT(GTOs)
 Exchange Functional    Exchange        .... PBE
   PBE kappa parameter   XKappa         ....  1.245000
   PBE mue parameter    XMuePBE         ....  0.219520
 Correlation Functional Correlation     .... PBE
   PBE beta parameter  CBetaPBE         ....  0.066725
 LDA part of GGA corr.  LDAOpt          .... PW91-LDA
 Gradients option       PostSCFGGA      .... off
   Density functional embedding theory  .... OFF
   NL short-range parameter             ....  3.700000
 RI-approximation to the Coulomb term is turned on
   Number of auxiliary basis functions  .... 448


General Settings:
 Integral files         IntName         .... n-hexane
 Hartree-Fock type      HFTyp           .... RHF
 Total Charge           Charge          ....    0
 Multiplicity           Mult            ....    1
 Number of Electrons    NEL             ....   50
 Basis Dimension        Dim             ....  270
 Nuclear Repulsion      ENuc            ....    243.9253946151 Eh

Convergence Acceleration:
 DIIS                   CNVDIIS         .... on
   Start iteration      DIISMaxIt       ....    12
   Startup error        DIISStart       ....  0.200000
   # of expansion vecs  DIISMaxEq       ....     5
   Bias factor          DIISBfac        ....   1.050
   Max. coefficient     DIISMaxC        ....  10.000
 Newton-Raphson         CNVNR           .... off
 SOSCF                  CNVSOSCF        .... on
   Start iteration      SOSCFMaxIt      ....   150
   Startup grad/error   SOSCFStart      ....  0.003300
 Level Shifting         CNVShift        .... on
   Level shift para.    LevelShift      ....    0.2500
   Turn off err/grad.   ShiftErr        ....    0.0010
 Zerner damping         CNVZerner       .... off
 Static damping         CNVDamp         .... on
   Fraction old density DampFac         ....    0.7000
   Max. Damping (<1)    DampMax         ....    0.9800
   Min. Damping (>=0)   DampMin         ....    0.0000
   Turn off err/grad.   DampErr         ....    0.1000
 Fernandez-Rico         CNVRico         .... off

SCF Procedure:
 Maximum # iterations   MaxIter         ....   125
 SCF integral mode      SCFMode         .... Direct
   Integral package                     .... LIBINT
 Reset frequency        DirectResetFreq ....    20
 Integral Threshold     Thresh          ....  2.500e-11 Eh
 Primitive CutOff       TCut            ....  2.500e-12 Eh

Convergence Tolerance:
 Convergence Check Mode ConvCheckMode   .... Total+1el-Energy
 Convergence forced     ConvForced      .... 0
 Energy Change          TolE            ....  1.000e-08 Eh
 1-El. energy change                    ....  1.000e-05 Eh
 Orbital Gradient       TolG            ....  1.000e-05
 Orbital Rotation angle TolX            ....  1.000e-05
 DIIS Error             TolErr          ....  5.000e-07


Diagonalization of the overlap matrix:
Smallest eigenvalue                        ... 1.182e-04
Time for diagonalization                   ...    0.025 sec
Threshold for overlap eigenvalues          ... 1.000e-08
Number of eigenvalues below threshold      ... 0
Time for construction of square roots      ...    0.021 sec
Total time needed                          ...    0.046 sec

-------------------
DFT GRID GENERATION
-------------------

General Integration Accuracy     IntAcc      ...  4.670
Radial Grid Type                 RadialGrid  ... Gauss-Chebyshev
Angular Grid (max. acc.)         AngularGrid ... Lebedev-302
Angular grid pruning method      GridPruning ... 3 (G Style)
Weight generation scheme         WeightScheme... Becke
Basis function cutoff            BFCut       ...    1.0000e-11
Integration weight cutoff        WCut        ...    1.0000e-14
Grids for H and He will be reduced by one unit

# of grid points (after initial pruning)     ...  84788 (   0.0 sec)
# of grid points (after weights+screening)   ...  76938 (   0.1 sec)
nearest neighbour list constructed           ...    0.0 sec
Grid point re-assignment to atoms done       ...    0.0 sec
Grid point division into batches done        ...    0.3 sec
Reduced shell lists constructed in    0.4 sec

Total number of grid points                  ...    76938
Total number of batches                      ...     1212
Average number of points per batch           ...       63
Average number of grid points per atom       ...     3847
Average number of shells per batch           ...    72.50 (59.42%)
Average number of basis functions per batch  ...   157.59 (58.37%)
Average number of large shells per batch     ...    55.52 (76.58%)
Average number of large basis fcns per batch ...   123.05 (78.08%)
Maximum spatial batch extension              ...  18.46, 14.44, 16.05 au
Average spatial batch extension              ...   0.25,  0.23,  0.25 au

Time for grid setup =    0.487 sec

------------------------------
INITIAL GUESS: MODEL POTENTIAL
------------------------------
Loading Hartree-Fock densities                     ... done
Calculating cut-offs                               ... done
Setting up the integral package                    ... done
Initializing the effective Hamiltonian             ... done
Starting the Coulomb interaction                   ... done (   0.0 sec)
Reading the grid                                   ... done
Mapping shells                                     ... done
Starting the XC term evaluation                    ... done (   0.3 sec)
  promolecular density results
     # of electrons  =     49.993165124
     EX              =    -35.053133596
     EC              =     -1.604550643
     EX+EC           =    -36.657684239
Transforming the Hamiltonian                       ... done (   0.0 sec)
Diagonalizing the Hamiltonian                      ... done (   0.0 sec)
Back transforming the eigenvectors                 ... done (   0.0 sec)
Now organizing SCF variables                       ... done
                      ------------------
                      INITIAL GUESS DONE (   0.9 sec)
                      ------------------
--------------
SCF ITERATIONS
--------------
ITER       Energy         Delta-E        Max-DP      RMS-DP      [F,P]     Damp
               ***  Starting incremental Fock matrix formation  ***
  0   -236.8611427023   0.000000000000 0.03181134  0.00099576  0.1738442 0.7000
  1   -236.9709740378  -0.109831335533 0.02004551  0.00080150  0.0825391 0.7000
                               ***Turning on DIIS***
  2   -237.0089235131  -0.037949475269 0.03869704  0.00140623  0.0228072 0.0000
  3   -237.0600159354  -0.051092422357 0.01349633  0.00052656  0.0540199 0.0000
  4   -237.0798918888  -0.019875953398 0.00830249  0.00024277  0.0135118 0.0000
                      *** Initiating the SOSCF procedure ***
                           *** Shutting down DIIS ***
                      *** Re-Reading the Fockian *** 
                      *** Removing any level shift *** 
ITER      Energy       Delta-E        Grad      Rot      Max-DP    RMS-DP
  5   -237.08127078  -0.0013788880  0.001575  0.001575  0.004658  0.000120
               *** Restarting incremental Fock matrix formation ***
  6   -237.08138683  -0.0001160579  0.000690  0.002289  0.003730  0.000097
  7   -237.08138531   0.0000015284  0.000537  0.000451  0.000667  0.000014
  8   -237.08139845  -0.0000131425  0.000068  0.000294  0.000430  0.000012
  9   -237.08139861  -0.0000001597  0.000035  0.000068  0.000066  0.000002
 10   -237.08139867  -0.0000000621  0.000014  0.000036  0.000067  0.000002
 11   -237.08139867  -0.0000000008  0.000012  0.000017  0.000026  0.000001
                  ***Gradient check signals convergence***
              ***Rediagonalizing the Fockian in SOSCF/NRSCF***

               *****************************************************
               *                     SUCCESS                       *
               *           SCF CONVERGED AFTER  12 CYCLES          *
               *****************************************************

Setting up the final grid:

General Integration Accuracy     IntAcc      ...  5.010
Radial Grid Type                 RadialGrid  ... Gauss-Chebyshev
Angular Grid (max. acc.)         AngularGrid ... Lebedev-434
Angular grid pruning method      GridPruning ... 3 (G Style)
Weight generation scheme         WeightScheme... Becke
Basis function cutoff            BFCut       ...    1.0000e-11
Integration weight cutoff        WCut        ...    1.0000e-14
Grids for H and He will be reduced by one unit

# of grid points (after initial pruning)     ... 157876 (   0.0 sec)
# of grid points (after weights+screening)   ... 142828 (   0.1 sec)
nearest neighbour list constructed           ...    0.0 sec
Grid point re-assignment to atoms done       ...    0.0 sec
Grid point division into batches done        ...    0.9 sec
Reduced shell lists constructed in    1.0 sec

Total number of grid points                  ...   142828
Total number of batches                      ...     2242
Average number of points per batch           ...       63
Average number of grid points per atom       ...     7141
Average number of shells per batch           ...    70.99 (58.19%)
Average number of basis functions per batch  ...   154.04 (57.05%)
Average number of large shells per batch     ...    54.01 (76.08%)
Average number of large basis fcns per batch ...   119.65 (77.68%)
Maximum spatial batch extension              ...  17.66, 16.33, 14.62 au
Average spatial batch extension              ...   0.21,  0.19,  0.21 au

Final grid set up in    1.4 sec
Final integration                            ... done (   0.7 sec)
Change in XC energy                          ...     0.000160456
Integrated number of electrons               ...    49.999969717
Previous integrated no of electrons          ...    50.000038338

----------------
TOTAL SCF ENERGY
----------------

Total Energy       :         -237.08123823 Eh           -6451.30847 eV

Components:
Nuclear Repulsion  :          243.92539462 Eh            6637.54743 eV
Electronic Energy  :         -481.00663284 Eh          -13088.85590 eV
One Electron Energy:         -800.20661470 Eh          -21774.72899 eV
Two Electron Energy:          319.19998186 Eh            8685.87309 eV

Virial components:
Potential Energy   :         -473.04197260 Eh          -12872.12648 eV
Kinetic Energy     :          235.96073438 Eh            6420.81801 eV
Virial Ratio       :            2.00474869


DFT components:
N(Alpha)           :       24.999984858276 electrons
N(Beta)            :       24.999984858276 electrons
N(Total)           :       49.999969716552 electrons
E(X)               :      -36.178520889811 Eh       
E(C)               :       -1.604095305467 Eh       
E(XC)              :      -37.782616195278 Eh       
DFET-embed. en.    :        0.000000000000 Eh       

---------------
SCF CONVERGENCE
---------------

  Last Energy change         ...   -1.1610e-08  Tolerance :   1.0000e-08
  Last MAX-Density change    ...    8.6823e-06  Tolerance :   1.0000e-07
  Last RMS-Density change    ...    2.8088e-07  Tolerance :   5.0000e-09
  Last Orbital Gradient      ...    1.6126e-06  Tolerance :   1.0000e-05
  Last Orbital Rotation      ...    6.1746e-06  Tolerance :   1.0000e-05

             **** THE GBW FILE WAS UPDATED (n-hexane.gbw) ****
             **** DENSITY FILE WAS UPDATED (n-hexane.scfp) ****
             **** ENERGY FILE WAS UPDATED (n-hexane.en.tmp) ****
             **** THE GBW FILE WAS UPDATED (n-hexane.gbw) ****
             **** DENSITY FILE WAS UPDATED (n-hexane.scfp) ****
----------------
ORBITAL ENERGIES
----------------

  NO   OCC          E(Eh)            E(eV) 
   0   2.0000      -9.883670      -268.9483 
   1   2.0000      -9.883668      -268.9483 
   2   2.0000      -9.881499      -268.8893 
   3   2.0000      -9.881396      -268.8865 
   4   2.0000      -9.876581      -268.7554 
   5   2.0000      -9.876581      -268.7554 
   6   2.0000      -0.730858       -19.8876 
   7   2.0000      -0.694492       -18.8981 
   8   2.0000      -0.638572       -17.3764 
   9   2.0000      -0.572368       -15.5749 
  10   2.0000      -0.519343       -14.1320 
  11   2.0000      -0.513548       -13.9744 
  12   2.0000      -0.426872       -11.6158 
  13   2.0000      -0.395084       -10.7508 
  14   2.0000      -0.386205       -10.5092 
  15   2.0000      -0.372534       -10.1372 
  16   2.0000      -0.351053        -9.5526 
  17   2.0000      -0.335131        -9.1194 
  18   2.0000      -0.331811        -9.0290 
  19   2.0000      -0.308668        -8.3993 
  20   2.0000      -0.296850        -8.0777 
  21   2.0000      -0.282659        -7.6915 
  22   2.0000      -0.282284        -7.6813 
  23   2.0000      -0.276205        -7.5159 
  24   2.0000      -0.267560        -7.2807 
  25   0.0000       0.018809         0.5118 
  26   0.0000       0.030220         0.8223 
  27   0.0000       0.050846         1.3836 
  28   0.0000       0.051661         1.4058 
  29   0.0000       0.057066         1.5529 
  30   0.0000       0.085946         2.3387 
  31   0.0000       0.089291         2.4297 
  32   0.0000       0.091762         2.4970 
  33   0.0000       0.107488         2.9249 
  34   0.0000       0.107871         2.9353 
  35   0.0000       0.112433         3.0595 
  36   0.0000       0.113153         3.0790 
  37   0.0000       0.135712         3.6929 
  38   0.0000       0.140323         3.8184 
  39   0.0000       0.142944         3.8897 
  40   0.0000       0.152157         4.1404 
  41   0.0000       0.165541         4.5046 
  42   0.0000       0.172002         4.6804 
  43   0.0000       0.187475         5.1014 
  44   0.0000       0.199368         5.4251 
  45   0.0000       0.215224         5.8565 
  46   0.0000       0.235650         6.4124 
  47   0.0000       0.236894         6.4462 
  48   0.0000       0.266155         7.2425 
  49   0.0000       0.266928         7.2635 
  50   0.0000       0.267389         7.2760 
  51   0.0000       0.281653         7.6642 
  52   0.0000       0.291723         7.9382 
  53   0.0000       0.304657         8.2901 
  54   0.0000       0.340015         9.2523 
  55   0.0000       0.341448         9.2913 
  56   0.0000       0.368212        10.0196 
  57   0.0000       0.372792        10.1442 
  58   0.0000       0.380401        10.3512 
  59   0.0000       0.384288        10.4570 
  60   0.0000       0.393142        10.6979 
  61   0.0000       0.411275        11.1914 
  62   0.0000       0.414870        11.2892 
  63   0.0000       0.422916        11.5081 
  64   0.0000       0.426032        11.5929 
  65   0.0000       0.431753        11.7486 
  66   0.0000       0.435305        11.8453 
  67   0.0000       0.444390        12.0925 
  68   0.0000       0.448108        12.1936 
  69   0.0000       0.451273        12.2798 
  70   0.0000       0.451359        12.2821 
  71   0.0000       0.457908        12.4603 
  72   0.0000       0.466312        12.6890 
  73   0.0000       0.487456        13.2644 
  74   0.0000       0.499717        13.5980 
  75   0.0000       0.517961        14.0944 
  76   0.0000       0.557809        15.1787 
  77   0.0000       0.566486        15.4149 
  78   0.0000       0.577063        15.7027 
  79   0.0000       0.599256        16.3066 
  80   0.0000       0.621285        16.9060 
  81   0.0000       0.667657        18.1679 
  82   0.0000       0.668855        18.2005 
  83   0.0000       0.719909        19.5897 
  84   0.0000       0.761361        20.7177 
  85   0.0000       0.772518        21.0213 
  86   0.0000       0.778568        21.1859 
  87   0.0000       0.789572        21.4854 
  88   0.0000       0.799649        21.7596 
  89   0.0000       0.818711        22.2783 
  90   0.0000       0.832904        22.6645 
  91   0.0000       0.846875        23.0446 
  92   0.0000       0.856251        23.2998 
  93   0.0000       0.932941        25.3866 
  94   0.0000       0.948001        25.7964 
  95   0.0000       0.971736        26.4423 
  96   0.0000       0.973207        26.4823 
  97   0.0000       1.007710        27.4212 
  98   0.0000       1.015433        27.6313 
  99   0.0000       1.016424        27.6583 
 100   0.0000       1.037542        28.2329 
 101   0.0000       1.048494        28.5310 
 102   0.0000       1.062328        28.9074 
 103   0.0000       1.072485        29.1838 
 104   0.0000       1.091725        29.7074 
 105   0.0000       1.133125        30.8339 
 106   0.0000       1.148213        31.2445 
 107   0.0000       1.164679        31.6925 
 108   0.0000       1.215523        33.0761 
 109   0.0000       1.226689        33.3799 
 110   0.0000       1.265393        34.4331 
 111   0.0000       1.266067        34.4514 
 112   0.0000       1.391228        37.8572 
 113   0.0000       1.448707        39.4213 
 114   0.0000       1.451366        39.4937 
 115   0.0000       1.462154        39.7872 
 116   0.0000       1.463290        39.8182 
 117   0.0000       1.472695        40.0741 
 118   0.0000       1.479930        40.2709 
 119   0.0000       1.489096        40.5204 
 120   0.0000       1.499819        40.8122 
 121   0.0000       1.507764        41.0283 
 122   0.0000       1.523012        41.4433 
 123   0.0000       1.537349        41.8334 
 124   0.0000       1.546846        42.0918 
 125   0.0000       1.557231        42.3744 
 126   0.0000       1.564656        42.5764 
 127   0.0000       1.580935        43.0194 
 128   0.0000       1.658980        45.1431 
 129   0.0000       1.668199        45.3940 
 130   0.0000       1.674501        45.5655 
 131   0.0000       1.712422        46.5974 
 132   0.0000       1.752392        47.6850 
 133   0.0000       1.761913        47.9441 
 134   0.0000       1.766675        48.0737 
 135   0.0000       1.778430        48.3935 
 136   0.0000       1.780715        48.4557 
 137   0.0000       1.810692        49.2714 
 138   0.0000       1.826744        49.7082 
 139   0.0000       1.843210        50.1563 
 140   0.0000       1.863771        50.7158 
 141   0.0000       1.881438        51.1965 
 142   0.0000       1.891252        51.4636 
 143   0.0000       1.896455        51.6052 
 144   0.0000       1.920143        52.2497 
 145   0.0000       1.944760        52.9196 
 146   0.0000       2.003281        54.5120 
 147   0.0000       2.032238        55.3000 
 148   0.0000       2.073663        56.4273 
 149   0.0000       2.075514        56.4776 
 150   0.0000       2.155626        58.6576 
 151   0.0000       2.173616        59.1471 
 152   0.0000       2.177378        59.2495 
 153   0.0000       2.225747        60.5657 
 154   0.0000       2.252522        61.2942 
 155   0.0000       2.255958        61.3877 
 156   0.0000       2.258912        61.4681 
 157   0.0000       2.261353        61.5345 
 158   0.0000       2.288567        62.2751 
 159   0.0000       2.308448        62.8161 
 160   0.0000       2.328815        63.3703 
 161   0.0000       2.350254        63.9537 
 162   0.0000       2.378299        64.7168 
 163   0.0000       2.386393        64.9371 
 164   0.0000       2.399536        65.2947 
 165   0.0000       2.404402        65.4271 
 166   0.0000       2.426898        66.0392 
 167   0.0000       2.454559        66.7919 
 168   0.0000       2.467698        67.1495 
 169   0.0000       2.476708        67.3947 
 170   0.0000       2.485586        67.6362 
 171   0.0000       2.487049        67.6760 
 172   0.0000       2.528217        68.7963 
 173   0.0000       2.536240        69.0146 
 174   0.0000       2.544994        69.2528 
 175   0.0000       2.551128        69.4197 
 176   0.0000       2.552789        69.4649 
 177   0.0000       2.580692        70.2242 
 178   0.0000       2.598848        70.7183 
 179   0.0000       2.604086        70.8608 
 180   0.0000       2.620755        71.3144 
 181   0.0000       2.631526        71.6075 
 182   0.0000       2.667589        72.5888 
 183   0.0000       2.669532        72.6417 
 184   0.0000       2.679207        72.9049 
 185   0.0000       2.679892        72.9236 
 186   0.0000       2.689620        73.1883 
 187   0.0000       2.715510        73.8928 
 188   0.0000       2.733276        74.3762 
 189   0.0000       2.800079        76.1940 
 190   0.0000       2.864590        77.9495 
 191   0.0000       2.889226        78.6198 
 192   0.0000       2.929890        79.7264 
 193   0.0000       2.944233        80.1166 
 194   0.0000       2.998224        81.5858 
 195   0.0000       3.011347        81.9429 
 196   0.0000       3.026492        82.3550 
 197   0.0000       3.040287        82.7304 
 198   0.0000       3.067461        83.4699 
 199   0.0000       3.087219        84.0075 
 200   0.0000       3.106065        84.5203 
 201   0.0000       3.115060        84.7651 
 202   0.0000       3.137585        85.3780 
 203   0.0000       3.153496        85.8110 
 204   0.0000       3.183053        86.6153 
 205   0.0000       3.183152        86.6180 
 206   0.0000       3.197552        87.0098 
 207   0.0000       3.210242        87.3551 
 208   0.0000       3.214585        87.4733 
 209   0.0000       3.220616        87.6374 
 210   0.0000       3.241557        88.2073 
 211   0.0000       3.263615        88.8075 
 212   0.0000       3.312351        90.1337 
 213   0.0000       3.332741        90.6885 
 214   0.0000       3.335088        90.7524 
 215   0.0000       3.345089        91.0245 
 216   0.0000       3.368760        91.6686 
 217   0.0000       3.369166        91.6797 
 218   0.0000       3.394553        92.3705 
 219   0.0000       3.430775        93.3561 
 220   0.0000       3.454783        94.0094 
 221   0.0000       3.466335        94.3238 
 222   0.0000       3.466546        94.3295 
 223   0.0000       3.480318        94.7043 
 224   0.0000       3.491413        95.0062 
 225   0.0000       3.528552        96.0168 
 226   0.0000       3.530750        96.0766 
 227   0.0000       3.538316        96.2825 
 228   0.0000       3.616732        98.4163 
 229   0.0000       3.660176        99.5984 
 230   0.0000       3.742994       101.8521 
 231   0.0000       3.754232       102.1579 
 232   0.0000       3.772906       102.6660 
 233   0.0000       3.804176       103.5169 
 234   0.0000       3.814629       103.8013 
 235   0.0000       3.821862       103.9982 
 236   0.0000       3.826106       104.1136 
 237   0.0000       3.849254       104.7435 
 238   0.0000       3.909565       106.3847 
 239   0.0000       3.920736       106.6886 
 240   0.0000       3.939842       107.2086 
 241   0.0000       3.986209       108.4703 
 242   0.0000       4.091649       111.3394 
 243   0.0000       4.109149       111.8156 
 244   0.0000       4.186139       113.9106 
 245   0.0000       4.202422       114.3537 
 246   0.0000       4.208888       114.5297 
 247   0.0000       4.255600       115.8008 
 248   0.0000       4.313681       117.3812 
 249   0.0000       4.331184       117.8575 
 250   0.0000       4.399922       119.7280 
 251   0.0000       4.446048       120.9831 
 252   0.0000       4.491989       122.2332 
 253   0.0000       4.505155       122.5915 
 254   0.0000       4.508582       122.6848 
 255   0.0000       4.510612       122.7400 
 256   0.0000       4.523218       123.0830 
 257   0.0000       4.535647       123.4212 
 258   0.0000       4.601345       125.2090 
 259   0.0000       4.624377       125.8357 
 260   0.0000       4.758924       129.4969 
 261   0.0000       4.823796       131.2622 
 262   0.0000       5.012361       136.3933 
 263   0.0000       5.100466       138.7907 
 264   0.0000      22.010313       598.9311 
 265   0.0000      22.046381       599.9125 
 266   0.0000      22.093201       601.1866 
 267   0.0000      22.177715       603.4863 
 268   0.0000      22.207834       604.3059 
 269   0.0000      22.221935       604.6896 

                    ********************************
                    * MULLIKEN POPULATION ANALYSIS *
                    ********************************

-----------------------
MULLIKEN ATOMIC CHARGES
-----------------------
   0 C :   -0.298671
   1 C :   -0.108811
   2 H :    0.103741
   3 H :    0.093487
   4 H :    0.093409
   5 H :    0.069301
   6 H :    0.069256
   7 C :   -0.149872
   8 H :    0.064080
   9 C :   -0.149873
  10 H :    0.064080
  11 H :    0.064080
  12 H :    0.064080
  13 C :   -0.108810
  14 H :    0.069256
  15 C :   -0.298671
  16 H :    0.069301
  17 H :    0.093409
  18 H :    0.093487
  19 H :    0.103741
Sum of atomic charges:   -0.0000000

--------------------------------
MULLIKEN REDUCED ORBITAL CHARGES
--------------------------------
  0 C s       :     3.198223  s :     3.198223
      pz      :     1.044891  p :     3.042222
      px      :     0.953067
      py      :     1.044264
      dz2     :     0.003551  d :     0.054981
      dxz     :     0.020941
      dyz     :     0.005201
      dx2y2   :     0.008752
      dxy     :     0.016536
      f0      :     0.000284  f :     0.003245
      f+1     :     0.000465
      f-1     :     0.000402
      f+2     :     0.000715
      f-2     :     0.000009
      f+3     :     0.000510
      f-3     :     0.000859
  1 C s       :     3.135915  s :     3.135915
      pz      :     0.990737  p :     2.871868
      px      :     0.938141
      py      :     0.942990
      dz2     :     0.006340  d :     0.095607
      dxz     :     0.021405
      dyz     :     0.021497
      dx2y2   :     0.018738
      dxy     :     0.027628
      f0      :     0.000478  f :     0.005421
      f+1     :     0.000514
      f-1     :     0.000661
      f+2     :     0.001130
      f-2     :     0.000213
      f+3     :     0.000929
      f-3     :     0.001496
  2 H s       :     0.875222  s :     0.875222
      pz      :     0.005023  p :     0.021037
      px      :     0.005552
      py      :     0.010462
  3 H s       :     0.885665  s :     0.885665
      pz      :     0.008927  p :     0.020847
      px      :     0.006641
      py      :     0.005279
  4 H s       :     0.885739  s :     0.885739
      pz      :     0.008501  p :     0.020852
      px      :     0.005514
      py      :     0.006837
  5 H s       :     0.909629  s :     0.909629
      pz      :     0.008170  p :     0.021069
      px      :     0.005350
      py      :     0.007550
  6 H s       :     0.909674  s :     0.909674
      pz      :     0.009049  p :     0.021070
      px      :     0.006374
      py      :     0.005647
  7 C s       :     3.151865  s :     3.151865
      pz      :     0.997901  p :     2.901003
      px      :     0.947617
      py      :     0.955486
      dz2     :     0.005457  d :     0.091599
      dxz     :     0.021137
      dyz     :     0.021830
      dx2y2   :     0.018744
      dxy     :     0.024431
      f0      :     0.000469  f :     0.005405
      f+1     :     0.000511
      f-1     :     0.000668
      f+2     :     0.001128
      f-2     :     0.000235
      f+3     :     0.000917
      f-3     :     0.001478
  8 H s       :     0.914839  s :     0.914839
      pz      :     0.009030  p :     0.021081
      px      :     0.006385
      py      :     0.005666
  9 C s       :     3.151866  s :     3.151866
      pz      :     0.997901  p :     2.901004
      px      :     0.947617
      py      :     0.955486
      dz2     :     0.005457  d :     0.091599
      dxz     :     0.021137
      dyz     :     0.021830
      dx2y2   :     0.018744
      dxy     :     0.024431
      f0      :     0.000469  f :     0.005405
      f+1     :     0.000511
      f-1     :     0.000668
      f+2     :     0.001128
      f-2     :     0.000235
      f+3     :     0.000917
      f-3     :     0.001478
 10 H s       :     0.914834  s :     0.914834
      pz      :     0.008167  p :     0.021086
      px      :     0.005353
      py      :     0.007566
 11 H s       :     0.914834  s :     0.914834
      pz      :     0.008167  p :     0.021086
      px      :     0.005353
      py      :     0.007566
 12 H s       :     0.914839  s :     0.914839
      pz      :     0.009030  p :     0.021081
      px      :     0.006385
      py      :     0.005666
 13 C s       :     3.135914  s :     3.135914
      pz      :     0.990737  p :     2.871867
      px      :     0.938141
      py      :     0.942990
      dz2     :     0.006340  d :     0.095607
      dxz     :     0.021405
      dyz     :     0.021497
      dx2y2   :     0.018738
      dxy     :     0.027628
      f0      :     0.000478  f :     0.005421
      f+1     :     0.000514
      f-1     :     0.000661
      f+2     :     0.001130
      f-2     :     0.000213
      f+3     :     0.000929
      f-3     :     0.001496
 14 H s       :     0.909674  s :     0.909674
      pz      :     0.009049  p :     0.021070
      px      :     0.006374
      py      :     0.005647
 15 C s       :     3.198223  s :     3.198223
      pz      :     1.044891  p :     3.042222
      px      :     0.953066
      py      :     1.044264
      dz2     :     0.003551  d :     0.054981
      dxz     :     0.020941
      dyz     :     0.005201
      dx2y2   :     0.008752
      dxy     :     0.016536
      f0      :     0.000284  f :     0.003245
      f+1     :     0.000465
      f-1     :     0.000402
      f+2     :     0.000715
      f-2     :     0.000009
      f+3     :     0.000510
      f-3     :     0.000859
 16 H s       :     0.909629  s :     0.909629
      pz      :     0.008170  p :     0.021070
      px      :     0.005350
      py      :     0.007550
 17 H s       :     0.885739  s :     0.885739
      pz      :     0.008501  p :     0.020852
      px      :     0.005514
      py      :     0.006837
 18 H s       :     0.885666  s :     0.885666
      pz      :     0.008927  p :     0.020847
      px      :     0.006641
      py      :     0.005279
 19 H s       :     0.875221  s :     0.875221
      pz      :     0.005023  p :     0.021037
      px      :     0.005552
      py      :     0.010462


                     *******************************
                     * LOEWDIN POPULATION ANALYSIS *
                     *******************************

----------------------
LOEWDIN ATOMIC CHARGES
----------------------
   0 C :   -0.312526
   1 C :   -0.292753
   2 H :    0.115707
   3 H :    0.116148
   4 H :    0.116142
   5 H :    0.130422
   6 H :    0.130411
   7 C :   -0.268293
   8 H :    0.132368
   9 C :   -0.268293
  10 H :    0.132374
  11 H :    0.132374
  12 H :    0.132368
  13 C :   -0.292753
  14 H :    0.130411
  15 C :   -0.312526
  16 H :    0.130422
  17 H :    0.116142
  18 H :    0.116148
  19 H :    0.115707

-------------------------------
LOEWDIN REDUCED ORBITAL CHARGES
-------------------------------
  0 C s       :     2.838531  s :     2.838531
      pz      :     1.071672  p :     3.186830
      px      :     1.047563
      py      :     1.067595
      dz2     :     0.030384  d :     0.262536
      dxz     :     0.079791
      dyz     :     0.030955
      dx2y2   :     0.055387
      dxy     :     0.066019
      f0      :     0.002255  f :     0.024629
      f+1     :     0.004051
      f-1     :     0.002491
      f+2     :     0.003662
      f-2     :     0.002614
      f+3     :     0.003676
      f-3     :     0.005880
  1 C s       :     2.786068  s :     2.786068
      pz      :     1.025752  p :     3.065131
      px      :     1.020876
      py      :     1.018503
      dz2     :     0.041717  d :     0.402931
      dxz     :     0.081401
      dyz     :     0.088434
      dx2y2   :     0.093867
      dxy     :     0.097512
      f0      :     0.003485  f :     0.038622
      f+1     :     0.004466
      f-1     :     0.004377
      f+2     :     0.005813
      f-2     :     0.004317
      f+3     :     0.006454
      f-3     :     0.009710
  2 H s       :     0.823073  s :     0.823073
      pz      :     0.014449  p :     0.061221
      px      :     0.014642
      py      :     0.032130
  3 H s       :     0.822833  s :     0.822833
      pz      :     0.027824  p :     0.061019
      px      :     0.017691
      py      :     0.015504
  4 H s       :     0.822840  s :     0.822840
      pz      :     0.025575  p :     0.061018
      px      :     0.014648
      py      :     0.020795
  5 H s       :     0.810845  s :     0.810845
      pz      :     0.024440  p :     0.058733
      px      :     0.014280
      py      :     0.020012
  6 H s       :     0.810858  s :     0.810858
      pz      :     0.026661  p :     0.058731
      px      :     0.017060
      py      :     0.015010
  7 C s       :     2.782854  s :     2.782854
      pz      :     1.022833  p :     3.046532
      px      :     1.009058
      py      :     1.014641
      dz2     :     0.041401  d :     0.400416
      dxz     :     0.080758
      dyz     :     0.089024
      dx2y2   :     0.092921
      dxy     :     0.096313
      f0      :     0.003425  f :     0.038491
      f+1     :     0.004392
      f-1     :     0.004384
      f+2     :     0.005902
      f-2     :     0.004351
      f+3     :     0.006517
      f-3     :     0.009520
  8 H s       :     0.808948  s :     0.808948
      pz      :     0.026583  p :     0.058684
      px      :     0.017040
      py      :     0.015062
  9 C s       :     2.782854  s :     2.782854
      pz      :     1.022833  p :     3.046532
      px      :     1.009058
      py      :     1.014641
      dz2     :     0.041401  d :     0.400416
      dxz     :     0.080758
      dyz     :     0.089024
      dx2y2   :     0.092921
      dxy     :     0.096313
      f0      :     0.003425  f :     0.038491
      f+1     :     0.004392
      f-1     :     0.004384
      f+2     :     0.005902
      f-2     :     0.004351
      f+3     :     0.006517
      f-3     :     0.009520
 10 H s       :     0.808942  s :     0.808942
      pz      :     0.024256  p :     0.058685
      px      :     0.014276
      py      :     0.020153
 11 H s       :     0.808942  s :     0.808942
      pz      :     0.024256  p :     0.058685
      px      :     0.014276
      py      :     0.020153
 12 H s       :     0.808948  s :     0.808948
      pz      :     0.026583  p :     0.058684
      px      :     0.017040
      py      :     0.015062
 13 C s       :     2.786068  s :     2.786068
      pz      :     1.025752  p :     3.065131
      px      :     1.020876
      py      :     1.018503
      dz2     :     0.041717  d :     0.402931
      dxz     :     0.081401
      dyz     :     0.088434
      dx2y2   :     0.093867
      dxy     :     0.097512
      f0      :     0.003485  f :     0.038622
      f+1     :     0.004466
      f-1     :     0.004377
      f+2     :     0.005813
      f-2     :     0.004317
      f+3     :     0.006454
      f-3     :     0.009710
 14 H s       :     0.810858  s :     0.810858
      pz      :     0.026661  p :     0.058731
      px      :     0.017060
      py      :     0.015010
 15 C s       :     2.838531  s :     2.838531
      pz      :     1.071672  p :     3.186830
      px      :     1.047563
      py      :     1.067595
      dz2     :     0.030384  d :     0.262536
      dxz     :     0.079791
      dyz     :     0.030955
      dx2y2   :     0.055387
      dxy     :     0.066020
      f0      :     0.002255  f :     0.024629
      f+1     :     0.004051
      f-1     :     0.002491
      f+2     :     0.003662
      f-2     :     0.002614
      f+3     :     0.003676
      f-3     :     0.005880
 16 H s       :     0.810845  s :     0.810845
      pz      :     0.024440  p :     0.058733
      px      :     0.014280
      py      :     0.020012
 17 H s       :     0.822840  s :     0.822840
      pz      :     0.025575  p :     0.061018
      px      :     0.014648
      py      :     0.020795
 18 H s       :     0.822833  s :     0.822833
      pz      :     0.027824  p :     0.061019
      px      :     0.017691
      py      :     0.015504
 19 H s       :     0.823073  s :     0.823073
      pz      :     0.014449  p :     0.061221
      px      :     0.014642
      py      :     0.032130


                      *****************************
                      * MAYER POPULATION ANALYSIS *
                      *****************************

  NA   - Mulliken gross atomic population
  ZA   - Total nuclear charge
  QA   - Mulliken gross atomic charge
  VA   - Mayer's total valence
  BVA  - Mayer's bonded valence
  FA   - Mayer's free valence

  ATOM       NA         ZA         QA         VA         BVA        FA
  0 C      6.2987     6.0000    -0.2987     3.9447     3.9447    -0.0000
  1 C      6.1088     6.0000    -0.1088     3.9753     3.9753    -0.0000
  2 H      0.8963     1.0000     0.1037     0.9714     0.9714     0.0000
  3 H      0.9065     1.0000     0.0935     0.9796     0.9796    -0.0000
  4 H      0.9066     1.0000     0.0934     0.9796     0.9796    -0.0000
  5 H      0.9307     1.0000     0.0693     0.9753     0.9753    -0.0000
  6 H      0.9307     1.0000     0.0693     0.9753     0.9753    -0.0000
  7 C      6.1499     6.0000    -0.1499     4.0182     4.0182    -0.0000
  8 H      0.9359     1.0000     0.0641     0.9779     0.9779    -0.0000
  9 C      6.1499     6.0000    -0.1499     4.0182     4.0182    -0.0000
 10 H      0.9359     1.0000     0.0641     0.9779     0.9779    -0.0000
 11 H      0.9359     1.0000     0.0641     0.9779     0.9779    -0.0000
 12 H      0.9359     1.0000     0.0641     0.9779     0.9779    -0.0000
 13 C      6.1088     6.0000    -0.1088     3.9753     3.9753    -0.0000
 14 H      0.9307     1.0000     0.0693     0.9753     0.9753    -0.0000
 15 C      6.2987     6.0000    -0.2987     3.9447     3.9447    -0.0000
 16 H      0.9307     1.0000     0.0693     0.9753     0.9753    -0.0000
 17 H      0.9066     1.0000     0.0934     0.9796     0.9796     0.0000
 18 H      0.9065     1.0000     0.0935     0.9796     0.9796    -0.0000
 19 H      0.8963     1.0000     0.1037     0.9714     0.9714    -0.0000

  Mayer bond orders larger than 0.100000
B(  0-C ,  1-C ) :   1.0191 B(  0-C ,  2-H ) :   0.9692 B(  0-C ,  3-H ) :   0.9706 
B(  0-C ,  4-H ) :   0.9705 B(  1-C ,  5-H ) :   0.9513 B(  1-C ,  6-H ) :   0.9513 
B(  1-C ,  7-C ) :   1.0423 B(  7-C ,  8-H ) :   0.9470 B(  7-C ,  9-C ) :   1.0437 
B(  7-C , 10-H ) :   0.9469 B(  9-C , 11-H ) :   0.9469 B(  9-C , 12-H ) :   0.9470 
B(  9-C , 13-C ) :   1.0423 B( 13-C , 14-H ) :   0.9513 B( 13-C , 15-C ) :   1.0191 
B( 13-C , 16-H ) :   0.9513 B( 15-C , 17-H ) :   0.9705 B( 15-C , 18-H ) :   0.9706 
B( 15-C , 19-H ) :   0.9692 

-------
TIMINGS
-------

Total SCF time: 0 days 0 hours 0 min 10 sec 

Total time                  ....      10.875 sec
Sum of individual times     ....      10.614 sec  ( 97.6%)

Fock matrix formation       ....       7.537 sec  ( 69.3%)
  Split-RI-J                ....       2.656 sec  ( 35.2% of F)
  XC integration            ....       4.822 sec  ( 64.0% of F)
    Basis function eval.    ....       0.805 sec  ( 16.7% of XC)
    Density eval.           ....       1.340 sec  ( 27.8% of XC)
    XC-Functional eval.     ....       0.110 sec  (  2.3% of XC)
    XC-Potential eval.      ....       1.220 sec  ( 25.3% of XC)
Diagonalization             ....       0.258 sec  (  2.4%)
Density matrix formation    ....       0.054 sec  (  0.5%)
Population analysis         ....       0.043 sec  (  0.4%)
Initial guess               ....       0.442 sec  (  4.1%)
Orbital Transformation      ....       0.000 sec  (  0.0%)
Orbital Orthonormalization  ....       0.000 sec  (  0.0%)
DIIS solution               ....       0.109 sec  (  1.0%)
SOSCF solution              ....       0.315 sec  (  2.9%)
Grid generation             ....       1.856 sec  ( 17.1%)


-------------------------------------------------------------------------------
                          DFT DISPERSION CORRECTION                            
                                                                               
                                 DFTD4 V2.0                                    
-------------------------------------------------------------------------------
The revPBE functional is recognized
Active option DFTDOPT                   ...         5   

-------------------------   ----------------
Dispersion correction           -0.046369748
-------------------------   ----------------

------------------   -----------------
gCP correction             0.014085030
------------------   -----------------

-------------------------   --------------------
FINAL SINGLE POINT ENERGY      -237.113522944931
-------------------------   --------------------



           ************************************************************
           *        Program running with 8 parallel MPI-processes     *
           *              working on a common directory               *
           ************************************************************
------------------------------------------------------------------------------
                         ORCA SCF GRADIENT CALCULATION
------------------------------------------------------------------------------

Gradient of the Kohn-Sham DFT energy:
Kohn-Sham wavefunction type      ... RKS
Hartree-Fock exchange scaling    ...    0.000
Number of operators              ...    1
Number of atoms                  ...   20
Basis set dimensions             ...  270
Integral neglect threshold       ... 2.5e-11
Integral primitive cutoff        ... 2.5e-12

Nuclear repulsion gradient       ... done
One Electron Gradient            ... done
Pre-screening matrix             ... done
RI-J gradient                    ... done
Exchange-correlation gradient    ... done
Dispersion correction            ... 

------------------- 
Dispersion Gradient 
------------------- 
   1  :   -0.001242320   -0.000604019    0.000258794
   2  :   -0.000312687   -0.000936084    0.000204034
   3  :   -0.000306691   -0.000205335    0.000073809
   4  :   -0.000493224   -0.000137762   -0.000068600
   5  :   -0.000457350   -0.000085877    0.000224414
   6  :   -0.000032052   -0.000486360   -0.000141819
   7  :    0.000022102   -0.000407826    0.000301487
   8  :   -0.000358330    0.000257809   -0.000002073
   9  :   -0.000284455    0.000218359   -0.000298168
  10  :    0.000358330   -0.000257809    0.000002072
  11  :   -0.000215826    0.000318062    0.000264080
  12  :    0.000215825   -0.000318062   -0.000264080
  13  :    0.000284456   -0.000218360    0.000298167
  14  :    0.000312687    0.000936084   -0.000204031
  15  :   -0.000022102    0.000407827   -0.000301486
  16  :    0.001242319    0.000604020   -0.000258795
  17  :    0.000032052    0.000486359    0.000141820
  18  :    0.000457350    0.000085877   -0.000224415
  19  :    0.000493224    0.000137762    0.000068599
  20  :    0.000306691    0.000205335   -0.000073809

  |G| =    0.018439609

done
gCP correction                   ... done

------------------
CARTESIAN GRADIENT
------------------

   1   C   :   -0.002137225    0.000285670    0.000202255
   2   C   :    0.002284333   -0.002133429    0.000107567
   3   H   :    0.001533769    0.003815444   -0.000858677
   4   H   :    0.002339202   -0.001189952    0.003122058
   5   H   :    0.001605458   -0.002253811   -0.002992516
   6   H   :   -0.001439338    0.002851460    0.002951915
   7   H   :   -0.002202662    0.001737384   -0.003315961
   8   C   :   -0.001999806    0.002507094   -0.000205153
   9   H   :    0.002127411   -0.001699230    0.003149432
  10   C   :    0.001999873   -0.002507112    0.000205099
  11   H   :    0.001410506   -0.002744271   -0.002794287
  12   H   :   -0.001410502    0.002744275    0.002794319
  13   H   :   -0.002127422    0.001699233   -0.003149427
  14   C   :   -0.002284356    0.002133429   -0.000107590
  15   H   :    0.002202684   -0.001737379    0.003315957
  16   C   :    0.002137144   -0.000285675   -0.000202263
  17   H   :    0.001439351   -0.002851450   -0.002951910
  18   H   :   -0.001605481    0.002253805    0.002992547
  19   H   :   -0.002339181    0.001189970   -0.003122053
  20   H   :   -0.001533758   -0.003815455    0.000858687

Difference to translation invariance:
           :    0.0000000000    0.0000000000    0.0000000000

Norm of the cartesian gradient     ...    0.0172125720
RMS gradient                       ...    0.0022221335
MAX gradient                       ...    0.0038154548

-------
TIMINGS
-------

Total SCF gradient time            ...        5.407 sec

One electron gradient       ....       0.082 sec  (  1.5%)
Prescreening matrices       ....       0.106 sec  (  2.0%)
RI-J Coulomb gradient       ....       0.605 sec  ( 11.2%)
XC gradient                 ....       2.620 sec  ( 48.5%)
------------------------------------------------------------------------------
                         ORCA GEOMETRY RELAXATION STEP
------------------------------------------------------------------------------

Reading the OPT-File                    .... done
Getting information on internals        .... done
Copying old internal coords+grads       .... done
Making the new internal coordinates     .... (new redundants).... done
Validating the new internal coordinates .... (new redundants).... done
Calculating the B-matrix                .... done
Calculating the G,G- and P matrices     .... done
Transforming gradient to internals      .... done
Projecting the internal gradient        .... done
Number of atoms                         ....  20
Number of internal coordinates          .... 100
Current Energy                          ....  -237.113522945 Eh
Current gradient norm                   ....     0.017212572 Eh/bohr
Maximum allowed component of the step   ....  0.300
Current trust radius                    ....  0.300
Evaluating the initial hessian          ....  (Almloef) done
Projecting the Hessian                  .... done
Forming the augmented Hessian           .... done
Diagonalizing the augmented Hessian     .... done
Last element of RFO vector              ....  0.998652472
Lowest eigenvalues of augmented Hessian:
 -0.000899154  0.011161256  0.011161258  0.011161461  0.011161473
Length of the computed step             ....  0.051966462
The final length of the internal step   ....  0.051966462
Converting the step to cartesian space:
 Initial RMS(Int)=    0.0051966462
Transforming coordinates:
 Iter   0:  RMS(Cart)=    0.0138951645 RMS(Int)=    0.0051953511
 Iter   1:  RMS(Cart)=    0.0000103464 RMS(Int)=    0.0000082925
 Iter   2:  RMS(Cart)=    0.0000000427 RMS(Int)=    0.0000000444
done
Storing new coordinates                 .... done

                                .--------------------.
          ----------------------|Geometry convergence|-------------------------
          Item                value                   Tolerance       Converged
          ---------------------------------------------------------------------
          RMS gradient        0.0017731657            0.0000300000      NO
          MAX gradient        0.0043251699            0.0001000000      NO
          RMS step            0.0051966462            0.0006000000      NO
          MAX step            0.0123292807            0.0010000000      NO
          ........................................................
          Max(Bonds)      0.0065      Max(Angles)    0.20
          Max(Dihed)        0.22      Max(Improp)    0.00
          ---------------------------------------------------------------------

The optimization has not yet converged - more geometry cycles are needed


    ---------------------------------------------------------------------------
                         Redundant Internal Coordinates
                            (Angstroem and degrees)

        Definition                    Value    dE/dq     Step     New-Value
    ----------------------------------------------------------------------------
     1. B(C   1,C   0)                1.5298 -0.003421  0.0048    1.5346   
     2. B(H   2,C   0)                1.0949 -0.004184  0.0062    1.1012   
     3. B(H   3,C   0)                1.0960 -0.004058  0.0061    1.1021   
     4. B(H   4,C   0)                1.0960 -0.004056  0.0061    1.1021   
     5. B(H   5,C   1)                1.0978 -0.004325  0.0065    1.1043   
     6. B(H   6,C   1)                1.0978 -0.004323  0.0065    1.1043   
     7. B(C   7,C   1)                1.5298 -0.003652  0.0052    1.5349   
     8. B(H   8,C   7)                1.0989 -0.004138  0.0063    1.1052   
     9. B(C   9,C   7)                1.5291 -0.003657  0.0052    1.5342   
    10. B(H  10,C   7)                1.0989 -0.004138  0.0063    1.1052   
    11. B(H  11,C   9)                1.0989 -0.004138  0.0063    1.1052   
    12. B(H  12,C   9)                1.0989 -0.004138  0.0063    1.1052   
    13. B(C  13,C   9)                1.5298 -0.003652  0.0052    1.5349   
    14. B(H  14,C  13)                1.0978 -0.004323  0.0065    1.1043   
    15. B(C  15,C  13)                1.5298 -0.003421  0.0048    1.5346   
    16. B(H  16,C  13)                1.0978 -0.004325  0.0065    1.1043   
    17. B(H  17,C  15)                1.0960 -0.004056  0.0061    1.1021   
    18. B(H  18,C  15)                1.0960 -0.004058  0.0061    1.1021   
    19. B(H  19,C  15)                1.0949 -0.004184  0.0062    1.1012   
    20. A(C   1,C   0,H   3)          110.85 -0.000412    0.08    110.93   
    21. A(C   1,C   0,H   2)          111.52 -0.000324    0.06    111.58   
    22. A(H   3,C   0,H   4)          107.69  0.000457   -0.09    107.60   
    23. A(H   2,C   0,H   4)          107.88  0.000398   -0.07    107.81   
    24. A(C   1,C   0,H   4)          110.86 -0.000438    0.08    110.94   
    25. A(H   2,C   0,H   3)          107.89  0.000386   -0.07    107.82   
    26. A(C   0,C   1,H   5)          109.61  0.000199   -0.01    109.59   
    27. A(C   0,C   1,C   7)          112.76 -0.000840    0.20    112.96   
    28. A(H   6,C   1,C   7)          109.13  0.000195   -0.01    109.12   
    29. A(H   5,C   1,C   7)          109.13  0.000197   -0.01    109.12   
    30. A(C   0,C   1,H   6)          109.61  0.000201   -0.02    109.60   
    31. A(H   5,C   1,H   6)          106.40  0.000102   -0.16    106.23   
    32. A(C   1,C   7,C   9)          113.26 -0.000814    0.19    113.46   
    33. A(H   8,C   7,C   9)          109.30  0.000191   -0.01    109.28   
    34. A(C   1,C   7,H   8)          109.20  0.000184   -0.01    109.19   
    35. A(C   9,C   7,H  10)          109.30  0.000181   -0.01    109.29   
    36. A(H   8,C   7,H  10)          106.35  0.000123   -0.17    106.18   
    37. A(C   1,C   7,H  10)          109.20  0.000192   -0.01    109.19   
    38. A(H  12,C   9,C  13)          109.20  0.000184   -0.01    109.19   
    39. A(H  11,C   9,C  13)          109.20  0.000192   -0.01    109.19   
    40. A(C   7,C   9,C  13)          113.26 -0.000814    0.19    113.46   
    41. A(H  11,C   9,H  12)          106.35  0.000123   -0.17    106.18   
    42. A(C   7,C   9,H  12)          109.30  0.000191   -0.01    109.28   
    43. A(C   7,C   9,H  11)          109.30  0.000181   -0.01    109.29   
    44. A(C  15,C  13,H  16)          109.61  0.000199   -0.01    109.59   
    45. A(H  14,C  13,H  16)          106.40  0.000102   -0.16    106.23   
    46. A(C   9,C  13,H  16)          109.13  0.000197   -0.01    109.12   
    47. A(H  14,C  13,C  15)          109.61  0.000201   -0.02    109.60   
    48. A(C   9,C  13,C  15)          112.76 -0.000840    0.20    112.96   
    49. A(C   9,C  13,H  14)          109.13  0.000195   -0.01    109.12   
    50. A(C  13,C  15,H  17)          110.86 -0.000438    0.08    110.94   
    51. A(H  18,C  15,H  19)          107.89  0.000386   -0.07    107.82   
    52. A(H  17,C  15,H  19)          107.88  0.000398   -0.07    107.81   
    53. A(C  13,C  15,H  19)          111.52 -0.000324    0.06    111.58   
    54. A(H  17,C  15,H  18)          107.69  0.000457   -0.09    107.60   
    55. A(C  13,C  15,H  18)          110.85 -0.000411    0.08    110.93   
    56. D(H   6,C   1,C   0,H   4)     61.99 -0.000184    0.10     62.10   
    57. D(C   7,C   1,C   0,H   3)     59.75  0.000011   -0.02     59.73   
    58. D(H   6,C   1,C   0,H   3)   -178.46 -0.000166    0.09   -178.37   
    59. D(C   7,C   1,C   0,H   4)    -59.80 -0.000007   -0.01    -59.80   
    60. D(H   6,C   1,C   0,H   2)    -58.23 -0.000174    0.10    -58.13   
    61. D(H   5,C   1,C   0,H   4)    178.42  0.000170   -0.11    178.31   
    62. D(H   5,C   1,C   0,H   3)    -62.03  0.000187   -0.12    -62.16   
    63. D(H   5,C   1,C   0,H   2)     58.20  0.000180   -0.12     58.08   
    64. D(C   7,C   1,C   0,H   2)    179.98  0.000003   -0.01    179.97   
    65. D(C   9,C   7,C   1,H   5)    -57.96 -0.000172    0.11    -57.85   
    66. D(H   8,C   7,C   1,H   6)    179.98 -0.000007    0.00    179.98   
    67. D(H   8,C   7,C   1,C   0)    -57.96 -0.000176    0.11    -57.85   
    68. D(C   9,C   7,C   1,C   0)    179.99 -0.000002    0.00    179.99   
    69. D(C   9,C   7,C   1,H   6)     57.93  0.000167   -0.10     57.83   
    70. D(H  10,C   7,C   1,H   6)    -64.11  0.000349   -0.21    -64.33   
    71. D(H  10,C   7,C   1,H   5)    180.00  0.000009   -0.01    179.99   
    72. D(H  10,C   7,C   1,C   0)     57.95  0.000180   -0.11     57.84   
[...]
     29       0.000235  -0.056769  -0.001677   0.000512  -0.000352   0.038474
     30       0.013202   0.128481   0.074344  -0.022352  -0.010612   0.085473
     31      -0.032483  -0.278533  -0.165056   0.051579   0.027400  -0.183312
     32      -0.041530  -0.332658  -0.214519   0.065562   0.033550  -0.221345
     33      -0.013199  -0.128484   0.074339  -0.022353   0.010618   0.085474
     34       0.032470   0.278540  -0.165045   0.051589  -0.027427  -0.183313
     35       0.041518   0.332667  -0.214506   0.065571  -0.033580  -0.221346
     36      -0.023361   0.214208   0.128862  -0.038748   0.019362  -0.142699
     37       0.016641  -0.154451  -0.085293   0.026905  -0.014901   0.101064
     38      -0.044959   0.368324   0.233856  -0.071409   0.037599  -0.244903
     39       0.029614   0.003060  -0.023624   0.004497  -0.000906  -0.005996
     40      -0.036850   0.004533   0.029274  -0.006279   0.001890  -0.008759
     41       0.002958   0.025335  -0.002353   0.000637  -0.000216  -0.049244
     42      -0.224859  -0.097302   0.178122  -0.035291   0.008829   0.184589
     43       0.151067   0.069889  -0.121726   0.025264  -0.006678  -0.130460
     44      -0.411903  -0.165927   0.328075  -0.068177   0.018888   0.315249
     45      -0.002348  -0.000386   0.008650   0.033561  -0.034473   0.001261
     46       0.006373  -0.000588  -0.006690  -0.000886   0.002371   0.001776
     47      -0.000846  -0.003275   0.000136  -0.003948   0.003782   0.009997
     48      -0.128381   0.058978   0.101306  -0.019109   0.004483  -0.111287
     49       0.290599  -0.126616  -0.232599   0.047659  -0.013125   0.237512
     50       0.376223  -0.151066  -0.298786   0.061012  -0.017111   0.286624
     51       0.013636  -0.009050  -0.033703  -0.112126   0.116152   0.025106
     52      -0.026304   0.016388   0.072060   0.238420  -0.247168  -0.049189
     53      -0.038487   0.021092   0.097499   0.313543  -0.325462  -0.061926
     54       0.023384   0.014212  -0.058557  -0.191858   0.199039  -0.041281
     55      -0.012392  -0.008563   0.036404   0.123224  -0.127689   0.026701
     56       0.040907   0.022304  -0.105517  -0.340056   0.353148  -0.067910
     57      -0.008936  -0.000039  -0.007405  -0.094160   0.093457   0.000249
     58      -0.038101  -0.000085  -0.027637  -0.348370   0.344777   0.000034
     59       0.007811  -0.000249   0.005771   0.072875  -0.072158   0.003434
                 54         55         56         57         58         59    
      0       0.002304   0.002550   0.007374   0.007199   0.002079   0.002372
      1       0.003354   0.003715   0.010882   0.010644  -0.061594  -0.065329
      2       0.018897   0.020895   0.060470   0.059047   0.010820   0.011470
      3      -0.006769  -0.004187   0.002421   0.002644   0.003305   0.003500
      4      -0.009842  -0.006096   0.003547   0.003875  -0.004623  -0.004944
      5      -0.055447  -0.034321   0.019899   0.021737   0.000466   0.000510
      6       0.000815   0.000825   0.001297   0.001200   0.164278   0.173481
      7       0.001075   0.001038   0.000788   0.000581   0.548504   0.579770
      8       0.007195   0.007499   0.015831   0.015346  -0.116663  -0.123291
      9      -0.072444  -0.077850  -0.231615  -0.226610  -0.120906  -0.129274
     10       0.048819   0.052893   0.149028   0.145480   0.060461   0.064753
     11      -0.123344  -0.133862  -0.384258  -0.375354  -0.206629  -0.220873
     12       0.043674   0.046653   0.142003   0.139106  -0.070736  -0.075594
     13      -0.090588  -0.098198  -0.280152  -0.273677   0.129495   0.138431
     14      -0.113166  -0.122678  -0.355856  -0.347858   0.193862   0.207055
     15      -0.120738  -0.072402   0.042368   0.045965  -0.013529  -0.014484
     16       0.262682   0.165121  -0.089305  -0.099107   0.029092   0.031702
     17       0.316567   0.195363  -0.110244  -0.120980   0.036663   0.039771
     18       0.202019   0.122696  -0.070445  -0.076822  -0.023234  -0.025069
     19      -0.144506  -0.091891   0.048200   0.053898   0.015688   0.017182
     20       0.349275   0.216974  -0.120603  -0.132815  -0.040675  -0.044303
     21      -0.003260  -0.006208   0.000616   0.001304   0.000065   0.000886
     22      -0.004728  -0.009028   0.000894   0.001906   0.000032  -0.000764
     23      -0.026692  -0.050891   0.005049   0.010726  -0.000004   0.000050
     24       0.093077   0.184058  -0.015556  -0.038716  -0.000182  -0.006259
     25      -0.069719  -0.128943   0.014654   0.028788   0.002173   0.005324
     26       0.166453   0.316006  -0.031573  -0.067705  -0.003240  -0.012502
     27       0.003260  -0.006208  -0.000616   0.001304  -0.000117   0.000880
     28       0.004728  -0.009028  -0.000894   0.001906   0.000013  -0.000765
     29       0.026692  -0.050891  -0.005049   0.010726   0.000001   0.000051
     30      -0.054469  -0.110488   0.008360   0.023058   0.000515  -0.003296
     31       0.125697   0.235930  -0.025113  -0.051680   0.003042   0.009282
     32       0.149564   0.287072  -0.027415  -0.061037   0.002151   0.010795
     33       0.054468  -0.110488  -0.008361   0.023057  -0.000320  -0.003321
     34      -0.125695   0.235930   0.025115  -0.051679  -0.003583   0.009085
     35      -0.149562   0.287073   0.027418  -0.061035  -0.002783   0.010648
     36      -0.093076   0.184058   0.015558  -0.038715   0.000551  -0.006236
     37       0.069718  -0.128943  -0.014655   0.028787  -0.002482   0.005187
     38      -0.166450   0.316006   0.031576  -0.067703   0.003970  -0.012288
     39       0.006769  -0.004187  -0.002421   0.002644  -0.003505   0.003300
     40       0.009842  -0.006096  -0.003547   0.003875   0.004906  -0.004663
     41       0.055447  -0.034322  -0.019900   0.021736  -0.000495   0.000481
     42      -0.202019   0.122697   0.070449  -0.076819   0.024670  -0.023657
     43       0.144506  -0.091892  -0.048202   0.053896  -0.016672   0.016229
     44      -0.349274   0.216976   0.120609  -0.132809   0.043213  -0.041831
     45      -0.002304   0.002550  -0.007374   0.007199  -0.002215   0.002246
     46      -0.003354   0.003715  -0.010882   0.010644   0.065333  -0.061589
     47      -0.018897   0.020896  -0.060473   0.059044  -0.011476   0.010813
     48       0.120738  -0.072403  -0.042370   0.045963   0.014359  -0.013662
     49      -0.262681   0.165122   0.089310  -0.099103  -0.030909   0.029934
     50      -0.316567   0.195365   0.110250  -0.120975  -0.038941   0.037544
     51      -0.043674   0.046653  -0.142009   0.139099   0.075064  -0.071298
     52       0.090587  -0.098198   0.280164  -0.273663  -0.137420   0.130567
     53       0.113165  -0.122679   0.355873  -0.347842  -0.205716   0.195282
     54       0.072444  -0.077850   0.231626  -0.226600   0.128306  -0.121931
     55      -0.048819   0.052893  -0.149035   0.145474  -0.064168   0.061081
     56       0.123343  -0.133863   0.384275  -0.375336   0.219273  -0.208324
     57      -0.000815   0.000825  -0.001297   0.001201  -0.174206   0.163508
     58      -0.001075   0.001038  -0.000789   0.000582  -0.581688   0.546469
     59      -0.007195   0.007499  -0.015832   0.015345   0.123719  -0.116207


-----------
IR SPECTRUM
-----------

 Mode    freq (cm**-1)   T**2         TX         TY         TZ
-------------------------------------------------------------------
   6:        73.38    0.015201  (  0.014672   0.021661   0.120483)
   7:        97.55    0.000683  (  0.006638   0.002663   0.025130)
   8:       128.84    0.003849  (  0.059482  -0.016566  -0.006061)
   9:       145.87    0.000000  (  0.000001  -0.000001  -0.000006)
  10:       233.76    0.000000  (  0.000001  -0.000000   0.000000)
  11:       244.82    0.000125  (  0.003548  -0.002554  -0.010309)
  12:       290.25    0.000000  (  0.000021  -0.000008  -0.000003)
  13:       358.51    0.000000  ( -0.000057   0.000004   0.000006)
  14:       454.45    0.077565  ( -0.272029   0.054590   0.024187)
  15:       714.26    4.722097  (  0.259753   0.375572   2.124517)
  16:       728.35    0.000000  ( -0.000002  -0.000002  -0.000002)
  17:       786.93    1.211316  (  0.132719   0.190342   1.075859)
  18:       872.80    3.168482  (  0.605130   1.634000  -0.363790)
  19:       883.69    0.000000  (  0.000019   0.000053  -0.000018)
  20:       884.77    0.000000  (  0.000082   0.000182  -0.000042)
  21:       986.44    0.368532  ( -0.071336  -0.105071  -0.593635)
  22:       996.41    0.000000  (  0.000066   0.000053  -0.000023)
  23:      1028.96    0.328969  (  0.410765   0.382841  -0.116937)
  24:      1050.04    0.000001  ( -0.000187  -0.000770   0.000156)
  25:      1052.88    3.764678  (  0.413070   1.857357  -0.379838)
  26:      1127.39    0.000000  (  0.000032   0.000142  -0.000029)
  27:      1166.72    0.000000  (  0.000002   0.000005   0.000004)
  28:      1213.64    0.003438  ( -0.004820  -0.008930  -0.057753)
  29:      1233.36    3.239929  ( -1.360885  -1.118673   0.369447)
  30:      1269.40    0.000000  ( -0.000001   0.000003   0.000004)
  31:      1291.26    0.000000  ( -0.000005  -0.000002   0.000004)
  32:      1297.18    0.866194  ( -0.111435  -0.160624  -0.909932)
  33:      1298.03    0.000000  (  0.000011   0.000058   0.000132)
  34:      1342.26    2.510798  (  1.526050   0.347080  -0.248003)
  35:      1349.27    0.000000  ( -0.000391   0.000026   0.000040)
  36:      1364.28    3.825731  ( -1.860647   0.591298   0.118706)
  37:      1367.71    0.000000  ( -0.000204  -0.000033   0.000030)
  38:      1437.67    0.000000  ( -0.000075  -0.000065   0.000023)
  39:      1438.23    0.300392  (  0.404768   0.352205  -0.111831)
  40:      1445.37    0.000000  ( -0.000043  -0.000013  -0.000011)
  41:      1452.94    1.632648  ( -0.662854  -1.079495   0.167219)
  42:      1453.85   14.141205  ( -0.441662  -0.621990  -3.682291)
  43:      1454.14    0.000000  (  0.000003  -0.000001   0.000072)
  44:      1461.13    0.000000  ( -0.000017   0.000027  -0.000013)
  45:      1466.30   10.415022  (  1.333090  -2.916823   0.360604)
  46:      2927.37    0.000000  ( -0.000243  -0.000099   0.000049)
  47:      2930.50    3.014264  ( -0.839635   1.510821  -0.163391)
  48:      2940.44    0.000000  (  0.000143   0.000339  -0.000082)
  49:      2945.24    0.000000  (  0.000121  -0.000182   0.000016)
  50:      2945.72   98.644820  ( -5.300877   8.357440  -0.835897)
  51:      2954.06  102.919645  ( 10.008803  -1.331506  -0.985193)
  52:      2954.22    0.000002  ( -0.001416   0.000019   0.000173)
  53:      2955.90    0.005754  (  0.009913  -0.019539  -0.072621)
  54:      2972.16    0.000000  ( -0.000000  -0.000010  -0.000020)
  55:      2986.85   64.328381  ( -0.956728  -1.390090  -7.840963)
  56:      3017.10    0.000000  ( -0.000037  -0.000037  -0.000260)
  57:      3017.89  130.729508  (  1.365305   2.009845  11.172555)
  58:      3022.03    0.074067  (  0.004427   0.267681  -0.048930)
  59:      3022.03   85.317322  ( -0.150055  -9.084897   1.661162)

The first frequency considered to be a vibration is 6
The total number of vibrations considered is 54


--------------------------
THERMOCHEMISTRY AT 298.15K
--------------------------

Temperature         ... 298.15 K
Pressure            ... 1.00 atm
Total Mass          ... 86.18 AMU

Throughout the following assumptions are being made:
  (1) The electronic state is orbitally nondegenerate
  (2) There are no thermally accessible electronically excited states
  (3) Hindered rotations indicated by low frequency modes are not
      treated as such but are treated as vibrations and this may
      cause some error
  (4) All equations used are the standard statistical mechanics
      equations for an ideal gas
  (5) All vibrations are strictly harmonic

freq.      73.38  E(vib)   ...       0.49 
freq.      97.55  E(vib)   ...       0.46 
freq.     128.84  E(vib)   ...       0.43 
freq.     145.87  E(vib)   ...       0.41 
freq.     233.76  E(vib)   ...       0.32 
freq.     244.82  E(vib)   ...       0.31 
freq.     290.25  E(vib)   ...       0.27 
freq.     358.51  E(vib)   ...       0.22 
freq.     454.45  E(vib)   ...       0.16 
freq.     714.26  E(vib)   ...       0.07 
freq.     728.35  E(vib)   ...       0.06 
freq.     786.93  E(vib)   ...       0.05 
freq.     872.80  E(vib)   ...       0.04 
freq.     883.69  E(vib)   ...       0.04 
freq.     884.77  E(vib)   ...       0.04 
freq.     986.44  E(vib)   ...       0.02 
freq.     996.41  E(vib)   ...       0.02 
freq.    1028.96  E(vib)   ...       0.02 
freq.    1050.04  E(vib)   ...       0.02 
freq.    1052.88  E(vib)   ...       0.02 
freq.    1127.39  E(vib)   ...       0.01 
freq.    1166.72  E(vib)   ...       0.01 
freq.    1213.64  E(vib)   ...       0.01 
freq.    1233.36  E(vib)   ...       0.01 
freq.    1269.40  E(vib)   ...       0.01 
freq.    1291.26  E(vib)   ...       0.01 
freq.    1297.18  E(vib)   ...       0.01 
freq.    1298.03  E(vib)   ...       0.01 
freq.    1342.26  E(vib)   ...       0.01 
freq.    1349.27  E(vib)   ...       0.01 
freq.    1364.28  E(vib)   ...       0.01 
freq.    1367.71  E(vib)   ...       0.01 
freq.    1437.67  E(vib)   ...       0.00 
freq.    1438.23  E(vib)   ...       0.00 
freq.    1445.37  E(vib)   ...       0.00 
freq.    1452.94  E(vib)   ...       0.00 
freq.    1453.85  E(vib)   ...       0.00 
freq.    1454.14  E(vib)   ...       0.00 
freq.    1461.13  E(vib)   ...       0.00 
freq.    1466.30  E(vib)   ...       0.00 
freq.    2927.37  E(vib)   ...       0.00 
freq.    2930.50  E(vib)   ...       0.00 
freq.    2940.44  E(vib)   ...       0.00 
freq.    2945.24  E(vib)   ...       0.00 
freq.    2945.72  E(vib)   ...       0.00 
freq.    2954.06  E(vib)   ...       0.00 
freq.    2954.22  E(vib)   ...       0.00 
freq.    2955.90  E(vib)   ...       0.00 
freq.    2972.16  E(vib)   ...       0.00 
freq.    2986.85  E(vib)   ...       0.00 
freq.    3017.10  E(vib)   ...       0.00 
freq.    3017.89  E(vib)   ...       0.00 
freq.    3022.03  E(vib)   ...       0.00 
freq.    3022.03  E(vib)   ...       0.00 

------------
INNER ENERGY
------------

The inner energy is: U= E(el) + E(ZPE) + E(vib) + E(rot) + E(trans)
    E(el)   - is the total energy from the electronic structure calculation
              = E(kin-el) + E(nuc-el) + E(el-el) + E(nuc-nuc)
    E(ZPE)  - the the zero temperature vibrational energy from the frequency calculation
    E(vib)  - the the finite temperature correction to E(ZPE) due to population
              of excited vibrational states
    E(rot)  - is the rotational thermal energy
    E(trans)- is the translational thermal energy

Summary of contributions to the inner energy U:
Electronic energy                ...   -237.11401824 Eh
Zero point energy                ...      0.18347135 Eh     115.13 kcal/mol
Thermal vibrational correction   ...      0.00574373 Eh       3.60 kcal/mol
Thermal rotational correction    ...      0.00141627 Eh       0.89 kcal/mol
Thermal translational correction ...      0.00141627 Eh       0.89 kcal/mol
-----------------------------------------------------------------------
Total thermal energy                   -236.92197062 Eh


Summary of corrections to the electronic energy:
(perhaps to be used in another calculation)
Total thermal correction                  0.00857627 Eh       5.38 kcal/mol
Non-thermal (ZPE) correction              0.18347135 Eh     115.13 kcal/mol
-----------------------------------------------------------------------
Total correction                          0.19204762 Eh     120.51 kcal/mol


--------
ENTHALPY
--------

The enthalpy is H = U + kB*T
                kB is Boltzmann's constant
Total free energy                 ...   -236.92197062 Eh 
Thermal Enthalpy correction       ...      0.00094421 Eh       0.59 kcal/mol
-----------------------------------------------------------------------
Total Enthalpy                    ...   -236.92102641 Eh

Error (ORCA_SYM): TSymmetryOperation::SetReflection called with NULL axis!
If your molecule is not C1 symmetric, check warnings below carefully ...
Error (ORCA_SYM): TSymmetryOperation::SetReflection called with NULL axis!
If your molecule is not C1 symmetric, check warnings below carefully ...
Error (ORCA_SYM): TSymmetryOperation::SetReflection called with NULL axis!
If your molecule is not C1 symmetric, check warnings below carefully ...
Error (ORCA_SYM): TSymmetryOperation::SetReflection called with NULL axis!
If your molecule is not C1 symmetric, check warnings below carefully ...

Note: Only C1 symmetry has been detected, increase convergence thresholds 
      if your molecule has a higher symmetry. Symmetry factor of 1.0 is   
      used for the rotational entropy correction. 
 

Note: Rotational entropy computed according to Herzberg 
Infrared and Raman Spectra, Chapter V,1, Van Nostrand Reinhold, 1945 
Point Group:  C1, Symmetry Number:   1  
Rotational constants in cm-1:     0.482203     0.037504     0.036214 

Vibrational entropy computed according to the QRRHO of S. Grimme
Chem.Eur.J. 2012 18 9955


-------
ENTROPY
-------

The entropy contributions are T*S = T*(S(el)+S(vib)+S(rot)+S(trans))
     S(el)   - electronic entropy
     S(vib)  - vibrational entropy
     S(rot)  - rotational entropy
     S(trans)- translational entropy
The entropies will be listed as mutliplied by the temperature to get
units of energy

Electronic entropy                ...      0.00000000 Eh      0.00 kcal/mol
Vibrational entropy               ...      0.01010606 Eh      6.34 kcal/mol
Rotational entropy                ...      0.01297172 Eh      8.14 kcal/mol
Translational entropy             ...      0.01866056 Eh     11.71 kcal/mol
-----------------------------------------------------------------------
Final entropy term                ...      0.04173834 Eh     26.19 kcal/mol

In case the symmetry of your molecule has not been determined correctly
or in case you have a reason to use a different symmetry number we print 
out the resulting rotational entropy values for sn=1,12 :
 --------------------------------------------------------
|  sn= 1 | S(rot)=       0.01297172 Eh      8.14 kcal/mol|
|  sn= 2 | S(rot)=       0.01231726 Eh      7.73 kcal/mol|
|  sn= 3 | S(rot)=       0.01193443 Eh      7.49 kcal/mol|
|  sn= 4 | S(rot)=       0.01166280 Eh      7.32 kcal/mol|
|  sn= 5 | S(rot)=       0.01145211 Eh      7.19 kcal/mol|
|  sn= 6 | S(rot)=       0.01127997 Eh      7.08 kcal/mol|
|  sn= 7 | S(rot)=       0.01113442 Eh      6.99 kcal/mol|
|  sn= 8 | S(rot)=       0.01100835 Eh      6.91 kcal/mol|
|  sn= 9 | S(rot)=       0.01089714 Eh      6.84 kcal/mol|
|  sn=10 | S(rot)=       0.01079766 Eh      6.78 kcal/mol|
|  sn=11 | S(rot)=       0.01070767 Eh      6.72 kcal/mol|
|  sn=12 | S(rot)=       0.01062551 Eh      6.67 kcal/mol|
 --------------------------------------------------------


-------------------
GIBBS FREE ENERGY
-------------------

The Gibbs free energy is G = H - T*S

Total enthalpy                    ...   -236.92102641 Eh 
Total entropy correction          ...     -0.04173834 Eh    -26.19 kcal/mol
-----------------------------------------------------------------------
Final Gibbs free energy         ...   -236.96276475 Eh

For completeness - the Gibbs free energy minus the electronic energy
G-E(el)                           ...      0.15125349 Eh     94.91 kcal/mol


Timings for individual modules:

Sum of individual times         ...      300.297 sec (=   5.005 min)
GTO integral calculation        ...        2.961 sec (=   0.049 min)   1.0 %
SCF iterations                  ...       41.312 sec (=   0.689 min)  13.8 %
SCF Gradient evaluation         ...       26.293 sec (=   0.438 min)   8.8 %
Geometry relaxation             ...        0.451 sec (=   0.008 min)   0.2 %
Analytical frequency calculation...      229.281 sec (=   3.821 min)  76.4 %
                             ****ORCA TERMINATED NORMALLY****
TOTAL RUN TIME: 0 days 0 hours 5 minutes 1 seconds 643 msec
