
                                 *****************
                                 * O   R   C   A *
                                 *****************

           --- An Ab Initio, DFT and Semiempirical electronic structure package ---

                  #######################################################
                  #                        -***-                        #
                  #          Department of theory and spectroscopy      #
                  #               Directorship: Frank Neese             #
                  #        Max Planck Institute fuer Kohlenforschung    #
                  #                Kaiser Wilhelm Platz 1               #
                  #                 D-45470 Muelheim/Ruhr               #
                  #                      Germany                        #
                  #                                                     #
                  #                  All rights reserved                #
                  #                        -***-                        #
                  #######################################################


                         Program Version 4.2.1 -  RELEASE  -


 With contributions from (in alphabetic order):
   Daniel Aravena         : Magnetic Suceptibility
   Michael Atanasov       : Ab Initio Ligand Field Theory (pilot matlab implementation)
   Alexander A. Auer      : GIAO ZORA, VPT2
   Ute Becker             : Parallelization
   Giovanni Bistoni       : ED, misc. LED, open-shell LED, HFLD
   Martin Brehm           : Molecular dynamics
   Dmytro Bykov           : SCF Hessian
   Vijay G. Chilkuri      : MRCI spin determinant printing, contributions to CSF-ICE
   Dipayan Datta          : RHF DLPNO-CCSD density
   Achintya Kumar Dutta   : EOM-CC, STEOM-CC
   Dmitry Ganyushin       : Spin-Orbit,Spin-Spin,Magnetic field MRCI
   Miquel Garcia          : C-PCM Hessian, Gaussian charge scheme
   Yang Guo               : DLPNO-NEVPT2, CIM, IAO-localization
   Andreas Hansen         : Spin unrestricted coupled pair/coupled cluster methods
   Benjamin Helmich-Paris : CASSCF linear response (MC-RPA)
   Lee Huntington         : MR-EOM, pCC
   Robert Izsak           : Overlap fitted RIJCOSX, COSX-SCS-MP3, EOM
   Christian Kollmar      : KDIIS, OOCD, Brueckner-CCSD(T), CCSD density
   Simone Kossmann        : Meta GGA functionals, TD-DFT gradient, OOMP2, MP2 Hessian
   Martin Krupicka        : AUTO-CI
   Lucas Lang             : DCDCAS
   Dagmar Lenk            : GEPOL surface, SMD
   Dimitrios Liakos       : Extrapolation schemes; Compound Job, initial MDCI parallelization
   Dimitrios Manganas     : Further ROCIS development; embedding schemes
   Dimitrios Pantazis     : SARC Basis sets
   Taras Petrenko         : DFT Hessian,TD-DFT gradient, ASA, ECA, R-Raman, ABS, FL, XAS/XES, NRVS
   Peter Pinski           : DLPNO-MP2, DLPNO-MP2 Gradient
   Christoph Reimann      : Effective Core Potentials
   Marius Retegan         : Local ZFS, SOC
   Christoph Riplinger    : Optimizer, TS searches, QM/MM, DLPNO-CCSD(T), (RO)-DLPNO pert. Triples
   Tobias Risthaus        : Range-separated hybrids, TD-DFT gradient, RPA, STAB
   Michael Roemelt        : Original ROCIS implementation
   Masaaki Saitow         : Open-shell DLPNO-CCSD energy and density
   Barbara Sandhoefer     : DKH picture change effects
   Avijit Sen             : IP-ROCIS
   Kantharuban Sivalingam : CASSCF convergence, NEVPT2, FIC-MRCI
   Bernardo de Souza      : ESD, SOC TD-DFT
   Georgi Stoychev        : AutoAux, RI-MP2 NMR
   Willem Van den Heuvel  : Paramagnetic NMR
   Boris Wezisla          : Elementary symmetry handling
   Frank Wennmohs         : Technical directorship


 We gratefully acknowledge several colleagues who have allowed us to
 interface, adapt or use parts of their codes:
   Stefan Grimme, W. Hujo, H. Kruse,             : VdW corrections, initial TS optimization,
                  C. Bannwarth                     DFT functionals, gCP, sTDA/sTD-DF
   Ed Valeev, F. Pavosevic, A. Kumar             : LibInt (2-el integral package), F12 methods
   Garnet Chan, S. Sharma, J. Yang, R. Olivares  : DMRG
   Ulf Ekstrom                                   : XCFun DFT Library
   Mihaly Kallay                                 : mrcc  (arbitrary order and MRCC methods)
   Andreas Klamt, Michael Diedenhofen            : otool_cosmo (COSMO solvation model)
   Jiri Pittner, Ondrej Demel                    : Mk-CCSD
   Frank Weinhold                                : gennbo (NPA and NBO analysis)
   Christopher J. Cramer and Donald G. Truhlar   : smd solvation model
   Lars Goerigk                                  : TD-DFT with DH, B97 family of functionals
   V. Asgeirsson, H. Jonsson                     : NEB implementation
   FAccTs GmbH                                   : IRC, NEB, NEB-TS, Multilevel, MM, QM/MM, CI optimization
   S Lehtola, MJT Oliveira, MAL Marques          : LibXC Library


 Your calculation uses the libint2 library for the computation of 2-el integrals
 For citations please refer to: http://libint.valeyev.net

 Your ORCA version has been built with support for libXC version: 4.2.3
 For citations please refer to: https://tddft.org/programs/libxc/

 This ORCA versions uses:
   CBLAS   interface :  Fast vector & matrix operations
   LAPACKE interface :  Fast linear algebra routines
   SCALAPACK package :  Parallel linear algebra routines




***************************************
The coordinates will be read from file: init.xyz
***************************************


Your calculation utilizes the SMD solvation module
Please cite in your paper:
A.V. Marenich, C.J. Cramer, D.G. Truhlar J. Phys. Chem. B, 113, (2009), 6378 

Your calculation utilizes the semiempirical GFN2-xTB method
Please cite in your paper:
C. Bannwarth, Ehlert S., S. Grimme,  J. Chem. Theory Comput., 15, (2019), 1652.
   

----- Orbital basis set information -----
Your calculation utilizes the basis: def2-SVP
   F. Weigend and R. Ahlrichs, Phys. Chem. Chem. Phys. 7, 3297 (2005).

================================================================================
                                        WARNINGS
                       Please study these warnings very carefully!
================================================================================


WARNING: The environment variable RSH_COMMAND is not set!
  ===> : All Displacements for the Numerical Hessian calculation
         will be started on localhost

WARNING: Geometry Optimization
  ===> : Switching off AutoStart
         For restart on a previous wavefunction, please use MOREAD

WARNING: Found dipole moment calculation with XTB calculation
  ===> : Switching off dipole moment calculation


INFO   : the flag for use of LIBINT has been found!

================================================================================
                                       INPUT FILE
================================================================================
NAME = N-methyl-maleamic-acid.inp
|  1> ! XTB2 Opt NumFreq
|  2> 
|  3> %pal
|  4>  nprocs 4
|  5> end
|  6> 
|  7> %cpcm
|  8>  smd true
|  9>  smdsolvent "water"
| 10> end
| 11> 
| 12> *xyzfile 0 1 init.xyz
| 13> 
| 14> 
| 15>                          ****END OF INPUT****
================================================================================

                       *****************************
                       * Geometry Optimization Run *
                       *****************************

Geometry optimization settings:
Update method            Update   .... BFGS
Choice of coordinates    CoordSys .... Z-matrix Internals
Initial Hessian          InHess   .... Almoef's Model

Convergence Tolerances:
Energy Change            TolE     ....  5.0000e-06 Eh
Max. Gradient            TolMAXG  ....  3.0000e-04 Eh/bohr
RMS Gradient             TolRMSG  ....  1.0000e-04 Eh/bohr
Max. Displacement        TolMAXD  ....  4.0000e-03 bohr
RMS Displacement         TolRMSD  ....  2.0000e-03 bohr
Strict Convergence                ....  False
------------------------------------------------------------------------------
                        ORCA OPTIMIZATION COORDINATE SETUP
------------------------------------------------------------------------------

The optimization will be done in new redundant internal coordinates
Making redundant internal coordinates   ...  (new redundants) done
Evaluating the initial hessian          ...  (Almloef) done
Evaluating the coordinates              ...  done
Calculating the B-matrix                .... done
Calculating the G-matrix                .... done
Diagonalizing the G-matrix              .... done
Small eigenvalue found = 1.108e-02
The first mode is                       ....   19
The number of degrees of freedom        ....   42

    -----------------------------------------------------------------
                    Redundant Internal Coordinates


    -----------------------------------------------------------------
         Definition                    Initial Value    Approx d2E/dq
    -----------------------------------------------------------------
      1. B(C   1,C   0)                  1.4809         0.447426   
      2. B(C   2,C   1)                  1.3379         0.756649   
      3. B(C   3,C   2)                  1.4921         0.429322   
      4. B(O   4,C   3)                  1.3106         0.749236   
      5. B(O   5,C   3)                  1.2195         1.046780   
      6. B(O   6,C   0)                  1.2414         0.965975   
      7. B(N   7,C   0)                  1.3331         0.689616   
      8. B(C   8,N   7)                  1.4438         0.459250   
      9. B(H   9,C   1)                  1.0825         0.370130   
     10. B(H  10,C   2)                  1.0830         0.369545   
     11. B(H  11,O   4)                  1.0297         0.402465   
     12. B(H  12,C   8)                  1.0882         0.362537   
     13. B(H  13,C   8)                  1.0898         0.360336   
     14. B(H  14,C   8)                  1.0897         0.360508   
     15. B(H  15,N   7)                  1.0099         0.432897   
     16. A(C   1,C   0,O   6)          124.0945         0.440427   
     17. A(C   1,C   0,N   7)          114.1536         0.414618   
     18. A(O   6,C   0,N   7)          121.7519         0.473390   
     19. A(C   0,C   1,C   2)          129.4201         0.424286   
     20. A(C   0,C   1,H   9)          114.1138         0.335655   
     21. A(C   2,C   1,H   9)          116.4661         0.366801   
     22. A(C   1,C   2,H  10)          117.7897         0.366701   
     23. A(C   1,C   2,C   3)          132.1388         0.421166   
     24. A(C   3,C   2,H  10)          110.0715         0.333272   
     25. A(C   2,C   3,O   4)          120.3414         0.417700   
     26. A(O   4,C   3,O   5)          121.1171         0.487860   
     27. A(C   2,C   3,O   5)          118.5415         0.443546   
     28. A(C   3,O   4,H  11)          113.0802         0.365898   
     29. A(C   8,N   7,H  15)          116.6697         0.340983   
     30. A(C   0,N   7,H  15)          119.8251         0.365270   
     31. A(C   0,N   7,C   8)          123.5045         0.413851   
     32. A(N   7,C   8,H  12)          108.4705         0.333922   
     33. A(H  13,C   8,H  14)          109.2883         0.290921   
     34. A(H  12,C   8,H  14)          109.5144         0.291200   
     35. A(N   7,C   8,H  14)          110.0237         0.333611   
     36. A(H  12,C   8,H  13)          109.4699         0.291178   
     37. A(N   7,C   8,H  13)          110.0578         0.333584   
     38. D(C   2,C   1,C   0,N   7)    179.3788         0.013649   
     39. D(C   2,C   1,C   0,O   6)     -0.5969         0.013649   
     40. D(H   9,C   1,C   0,N   7)     -0.6114         0.013649   
     41. D(H   9,C   1,C   0,O   6)    179.4130         0.013649   
     42. D(H  10,C   2,C   1,C   0)   -179.9926         0.040900   
     43. D(C   3,C   2,C   1,H   9)    179.9294         0.040900   
     44. D(H  10,C   2,C   1,H   9)     -0.0027         0.040900   
     45. D(C   3,C   2,C   1,C   0)     -0.0606         0.040900   
     46. D(O   5,C   3,C   2,H  10)      0.1012         0.012595   
     47. D(O   5,C   3,C   2,C   1)   -179.8348         0.012595   
     48. D(O   4,C   3,C   2,H  10)   -179.8957         0.012595   
     49. D(O   4,C   3,C   2,C   1)      0.1682         0.012595   
     50. D(H  11,O   4,C   3,O   5)   -179.9173         0.042625   
     51. D(H  11,O   4,C   3,C   2)      0.0796         0.042625   
     52. D(C   8,N   7,C   0,C   1)    179.9363         0.039238   
     53. D(H  15,N   7,C   0,O   6)   -179.7961         0.039238   
     54. D(H  15,N   7,C   0,C   1)      0.2277         0.039238   
     55. D(C   8,N   7,C   0,O   6)     -0.0875         0.039238   
     56. D(H  14,C   8,N   7,H  15)    -59.7562         0.018003   
     57. D(H  14,C   8,N   7,C   0)    120.5267         0.018003   
     58. D(H  13,C   8,N   7,H  15)     60.7304         0.018003   
     59. D(H  13,C   8,N   7,C   0)   -118.9867         0.018003   
     60. D(H  12,C   8,N   7,H  15)   -179.5299         0.018003   
     61. D(H  12,C   8,N   7,C   0)      0.7530         0.018003   
    -----------------------------------------------------------------

Number of atoms                         .... 16
Number of degrees of freedom            .... 61

         *************************************************************
         *                GEOMETRY OPTIMIZATION CYCLE   1            *
         *************************************************************
      -----------------------------------------------------------      
     |                   =====================                   |     
     |                           x T B                           |     
     |                   =====================                   |     
     |                         S. Grimme                         |     
     |          Mulliken Center for Theoretical Chemistry        |     
     |                    University of Bonn                     |     
      -----------------------------------------------------------      

   * xtb version 6.3.0 (preview) compiled by 'ehlert@majestix' on 2019-12-12

   This program is distributed in the hope that it will be useful,
   but WITHOUT ANY WARRANTY; without even the implied warranty of
   MERCHANTABILITY or FITNESS FOR A PARTICULAR PURPOSE.
   
   FOR NON-COMMERCIAL, ACADEMIA USE ONLY.
   
   Cite this work as:
   * S. Grimme, C. Bannwarth, P. Shushkov, J. Chem. Theory Comput., 2017,
     13, 1989-2009. DOI: 10.1021/acs.jctc.7b00118
   * C. Bannwarth, S. Ehlert and S. Grimme., J. Chem. Theory Comput., 2019,
     15, 1652-1671. DOI: 10.1021/acs.jctc.8b01176
   * P. Pracht, E. Caldeweyher, S. Ehlert, S. Grimme, ChemRxiv, 2019, preprint.
     DOI: 10.26434/chemrxiv.8326202.v1
   * S. Grimme, S. Spicher unpublished
   
   for DFT-D4:
   * E. Caldeweyher, C. Bannwarth and S. Grimme, J. Chem. Phys., 2017,
     147, 034112. DOI: 10.1063/1.4993215
   * E. Caldeweyher, S. Ehlert, A. Hansen, H. Neugebauer, S. Spicher,
     C. Bannwarth and S. Grimme, J. Chem. Phys., 2019, 150, 154122.
     DOI: 10.1063/1.5090222
   
   for sTDA-xTB:
   * S. Grimme and C. Bannwarth, J. Chem. Phys., 2016, 145, 054103.
     DOI: 10.1063/1.4959605
   
   in the mass-spec context:
   * V. Asgeirsson, C. Bauer and S. Grimme, Chem. Sci., 2017, 8, 4879.
     DOI: 10.1039/c7sc00601b
   
   for metadynamics refer to:
   * S. Grimme, J. Chem. Theory Comput., 2019, 155, 2847-2862
     DOI: 10.1021/acs.jctc.9b00143
   
   with help from (in alphabetical order)
   C. Bannwarth, F. Bohle, G. Brandenburg, E. Caldeweyher, M. Checinski,
   S. Dohm, S. Ehlert, S. Ehrlich, F. März, H. Neugebauer, J. Pisarek,
   P. Pracht, P. Shushkov, and S. Spicher.
   
 * started run on 2020/05/18 at 20:15:13.492     

           -------------------------------------------------
          |                Calculation Setup                |
           -------------------------------------------------

          program call               : /opt/orca/otool_xtb N-methyl-maleamic-acid_XTB.xyz --grad -c 0 -u 0 -P 4 --namespace N-methyl-maleamic-acid --gbsa H2O
          calculation namespace      : N-methyl-maleamic-acid
          coordinate file            : N-methyl-maleamic-acid_XTB.xyz
          omp threads                :                     4
          number of atoms            :                    16
          number of electrons        :                    50
          charge                     :                     0
          spin                       :                   0.0
          first test random number   :      0.04783333142560


########################################################################
# WARNING! Please study the warnings concerning your input carefully
#  - Process number higher than OMP_NUM_THREADS, I hope you know what you are doing.
########################################################################

           ------------------------------------------------- 
          |                 G F N 2 - x T B                 |
          | Geometry, Frequencies, Noncovalent interactions |
          |            JCTC 2019 parametrisation            |
           ------------------------------------------------- 
             k(s)              :                1.8500
             k(p)              :                2.2300
             k(d)              :                2.2300
             k(f)              :                2.0000
             kEN (H0ij)        :               -2.0000
             D4 a1             :                0.5200
             D4 a2             :                5.0000
             D4 s6             :                1.0000
             D4 s8             :                2.7000
             D4 s9             :                5.0000
             alphaj            :                2.0000

  Z AO/shell   Hii/eV     exponent
  1     Wed Apr 25 08:07:45 CEST 2018   EN: 2.200 GM2: 0.406  GM3: 0.0800  RAES: 1.40
     1s    -10.707211    1.230000
  6     Wed Apr 25 08:07:45 CEST 2018   EN: 2.550 GM2: 0.538  GM3: 0.1500  RAES: 3.00
     2s    -13.970922    2.096432
     2p    -10.063292    1.800000
  7     Wed Apr 25 08:07:45 CEST 2018   EN: 3.040 GM2: 0.461  GM3:-0.0640  RAES: 1.90
     2s    -16.686243    2.339881
     2p    -12.523956    2.014332
  8     Wed Apr 25 08:07:45 CEST 2018   EN: 3.440 GM2: 0.452  GM3:-0.0517  RAES: 1.80
     2s    -20.229985    2.439742
     2p    -15.503117    2.137023

 Solvent             : H2O
 Using internal parameter file: .param_gbsa2_H2O
 Gsolv ref. state (COSMO-RS): gsolv [1 M gas/solution]
 temperature (mdtemp)       :    298.150000000000     
 dielectric constant        :    80.2000000000000     
 rho                        :    1.00000000000000     
 mass                       :    18.0000000000000     
 surface tension            :    15.5689454083859     
 probe radius               :   0.975313790000000     
 Gshift (Eh)                :   1.857443126794793E-003
 c1                         :    1.55243817000000     
 soset                      :   0.130326360000000     
 HB correction              :  T
           ------------------------------------------------- 
          |        Self-Consistent Charge Iterations        |
           ------------------------------------------------- 

          ...................................................
          :                      SETUP                      :
          :.................................................:
          :  # basis functions                  43          :
          :  # atomic orbitals                  43          :
          :  # shells                           25          :
          :  # electrons                        50          :
          :  max. iterations                   250          :
          :  Hamiltonian                  GFN2-xTB          :
          :  GBSA solvation                   true          :
          :  PC potential                    false          :
          :  electronic temp.          300.0000000     K    :
          :  accuracy                    1.0000000          :
          :  -> integral cutoff          0.2500000E+02      :
          :  -> integral neglect         0.1000000E-07      :
          :  -> SCF convergence          0.1000000E-05 Eh   :
          :  -> wf. convergence          0.1000000E-03 e    :
          :  Broyden damping             0.4000000          :
          ...................................................
  Checking positiv definite overlap ...  done.
 

 iter      E             dE          RMSdq      gap      omega  full diag
   1    -29.6172164 -0.296172E+02  0.554E+00    2.44       0.0  T
   2    -29.7048991 -0.876826E-01  0.306E+00    2.81       1.0  T
   3    -29.7083998 -0.350074E-02  0.161E+00    2.89       1.0  T
   4    -29.7080424  0.357450E-03  0.765E-01    2.84       1.0  T
   5    -29.7138904 -0.584804E-02  0.131E-01    2.89       1.0  T
   6    -29.7139314 -0.410442E-04  0.674E-02    2.90       1.0  T
   7    -29.7139431 -0.117007E-04  0.296E-02    2.90       1.0  T
   8    -29.7139448 -0.160691E-05  0.983E-03    2.90       2.5  T
   9    -29.7139450 -0.213356E-06  0.279E-03    2.90       9.0  T
  10    -29.7139450 -0.118656E-07  0.123E-03    2.90      20.3  T
  11    -29.7139450 -0.180378E-08  0.281E-04    2.90      89.1  T
  12    -29.7139450 -0.217309E-09  0.133E-04    2.90     187.6  T

   *** convergence criteria satisfied after 12 iterations ***

         #    Occupation            Energy/Eh            Energy/eV
      -------------------------------------------------------------
         1        2.0000           -0.7386877             -20.1007
       ...           ...                  ...                  ...
        19        2.0000           -0.4953494             -13.4791
        20        2.0000           -0.4768023             -12.9744
        21        2.0000           -0.4715559             -12.8317
        22        2.0000           -0.4571785             -12.4405
        23        2.0000           -0.4279309             -11.6446
        24        2.0000           -0.4247445             -11.5579
        25        2.0000           -0.4204018             -11.4397 (HOMO)
        26                         -0.3138260              -8.5396 (LUMO)
        27                         -0.2205906              -6.0026
        28                         -0.1587815              -4.3207
        29                         -0.0091889              -0.2500
        30                          0.0441844               1.2023
       ...                                ...                  ...
        43                          0.6799318              18.5019
      -------------------------------------------------------------
                  HL-Gap            0.1065758 Eh            2.9001 eV
             Fermi-level           -0.3671139 Eh           -9.9897 eV

 SCC (total)                   0 d,  0 h,  0 min,  0.012 sec
 SCC setup                      ...        0 min,  0.000 sec (  3.652%)
 Dispersion                     ...        0 min,  0.000 sec (  0.881%)
 integral evaluation            ...        0 min,  0.003 sec ( 22.388%)
 zeroth order Hamiltonian       ...        0 min,  0.000 sec (  0.051%)
 iterations                     ...        0 min,  0.005 sec ( 42.236%)
 molecular gradient             ...        0 min,  0.003 sec ( 28.998%)
 printout                       ...        0 min,  0.000 sec (  1.607%)

         :::::::::::::::::::::::::::::::::::::::::::::::::::::
         ::                     SUMMARY                     ::
         :::::::::::::::::::::::::::::::::::::::::::::::::::::
         :: total energy             -29.398891805917 Eh    ::
         :: total w/o Gsasa/hb       -29.394509202799 Eh    ::
         :: gradient norm              0.000067556139 Eh/a0 ::
         :: HOMO-LUMO gap              2.900076431857 eV    ::
         ::.................................................::
         :: SCC energy               -29.712728774201 Eh    ::
         :: -> isotropic ES            0.114139431320 Eh    ::
         :: -> anisotropic ES         -0.002654523358 Eh    ::
         :: -> anisotropic XC          0.004642984313 Eh    ::
         :: -> dispersion             -0.010455279232 Eh    ::
         :: -> Gsolv                  -0.025466475530 Eh    ::
         ::    -> Gborn               -0.021083872412 Eh    ::
         ::    -> Gsasa               -0.000641238142 Eh    ::
         ::    -> Ghb                 -0.005598808102 Eh    ::
         ::    -> Gshift               0.001857443127 Eh    ::
         :: repulsion energy           0.313849346149 Eh    ::
         :: add. restraining           0.000000000000 Eh    ::
         :::::::::::::::::::::::::::::::::::::::::::::::::::::

           -------------------------------------------------
          |                Property Printout                |
           -------------------------------------------------

    * Orbital Energies and Occupations

         #    Occupation            Energy/Eh            Energy/eV
      -------------------------------------------------------------
         1        2.0000           -0.7386877             -20.1007
       ...           ...                  ...                  ...
        13        2.0000           -0.5609184             -15.2634
        14        2.0000           -0.5572828             -15.1644
        15        2.0000           -0.5365452             -14.6001
        16        2.0000           -0.5178139             -14.0904
        17        2.0000           -0.5104951             -13.8913
        18        2.0000           -0.5001766             -13.6105
        19        2.0000           -0.4953494             -13.4791
        20        2.0000           -0.4768023             -12.9744
        21        2.0000           -0.4715559             -12.8317
        22        2.0000           -0.4571785             -12.4405
        23        2.0000           -0.4279309             -11.6446
        24        2.0000           -0.4247445             -11.5579
        25        2.0000           -0.4204018             -11.4397 (HOMO)
        26                         -0.3138260              -8.5396 (LUMO)
        27                         -0.2205906              -6.0026
        28                         -0.1587815              -4.3207
        29                         -0.0091889              -0.2500
        30                          0.0441844               1.2023
        31                          0.0884989               2.4082
        32                          0.1187292               3.2308
        33                          0.1484979               4.0408
        34                          0.1574526               4.2845
        35                          0.1628573               4.4316
        36                          0.2085040               5.6737
       ...                                ...                  ...
        43                          0.6799318              18.5019
      -------------------------------------------------------------
                  HL-Gap            0.1065758 Eh            2.9001 eV
             Fermi-level           -0.3671139 Eh           -9.9897 eV

     #   Z        covCN         q      C6AA      α(0)
     1   6 C      2.754     0.274    22.376     7.746
     2   6 C      2.896    -0.058    29.452     8.898
     3   6 C      2.887    -0.059    29.462     8.899
     4   6 C      2.688     0.372    20.702     7.446
     5   8 O      1.646    -0.429    21.425     6.248
     6   8 O      0.858    -0.480    23.338     6.477
     7   8 O      0.875    -0.486    23.475     6.496
     8   7 N      2.691    -0.135    23.926     7.265
     9   6 C      3.690    -0.069    22.023     6.716
    10   1 H      0.925     0.097     1.813     2.106
    11   1 H      0.925     0.094     1.844     2.123
    12   1 H      0.806     0.391     0.501     1.111
    13   1 H      0.925     0.090     1.879     2.144
    14   1 H      0.925     0.086     1.916     2.165
    15   1 H      0.925     0.086     1.915     2.164
    16   1 H      0.860     0.227     0.977     1.549

 Mol. C6AA /au·bohr⁶  :       2745.529319
 Mol. C8AA /au·bohr⁸  :      62348.173805
 Mol. α(0) /au        :         79.552733


Wiberg/Mayer (AO) data.
largest (>0.10) Wiberg bond orders for each atom
          total WBO             WBO to atom ...
     1  C   3.954        O    7 1.520    N    8 1.342    C    2 1.025
     2  C   3.982        C    3 1.847    C    1 1.025    H   10 0.955
     3  C   3.975        C    2 1.847    C    4 1.002    H   11 0.959
     4  C   3.919        O    6 1.663    O    5 1.222    C    3 1.002
     5  O   2.192        C    4 1.222    H   12 0.683    O    6 0.177
     6  O   1.964        C    4 1.663    O    5 0.177
     7  O   2.030        C    1 1.520    N    8 0.197    H   12 0.143
     8  N   3.527        C    1 1.342    C    9 1.001    H   16 0.919    O    7 0.197
     9  C   3.946        N    8 1.001    H   13 0.976    H   15 0.968    H   14 0.967
    10  H   0.991        C    2 0.955
    11  H   0.990        C    3 0.959
    12  H   0.847        O    5 0.683    O    7 0.143
    13  H   0.992        C    9 0.976
    14  H   0.989        C    9 0.967
    15  H   0.989        C    9 0.968
    16  H   0.948        N    8 0.919

molecular dipole:
                 x           y           z       tot (Debye)
 q only:       -4.030       1.729       0.319
   full:       -4.208       2.029       0.360      11.909
molecular quadrupole (traceless):
                xx          xy          yy          xz          yz          zz
 q only:       -5.089      -1.356       4.097       0.326       0.190       0.991
  q+dip:       -7.117      -2.631       4.945       0.269       0.135       2.172
   full:       -8.163      -2.169       4.131       0.397      -0.214       4.031

           -------------------------------------------------
          |                Property Printout                |
           -------------------------------------------------

    * Orbital Energies and Occupations

         #    Occupation            Energy/Eh            Energy/eV
      -------------------------------------------------------------
         1        2.0000           -0.7386877             -20.1007
       ...           ...                  ...                  ...
        13        2.0000           -0.5609184             -15.2634
        14        2.0000           -0.5572828             -15.1644
        15        2.0000           -0.5365452             -14.6001
        16        2.0000           -0.5178139             -14.0904
        17        2.0000           -0.5104951             -13.8913
        18        2.0000           -0.5001766             -13.6105
        19        2.0000           -0.4953494             -13.4791
        20        2.0000           -0.4768023             -12.9744
        21        2.0000           -0.4715559             -12.8317
        22        2.0000           -0.4571785             -12.4405
        23        2.0000           -0.4279309             -11.6446
        24        2.0000           -0.4247445             -11.5579
        25        2.0000           -0.4204018             -11.4397 (HOMO)
        26                         -0.3138260              -8.5396 (LUMO)
        27                         -0.2205906              -6.0026
        28                         -0.1587815              -4.3207
        29                         -0.0091889              -0.2500
        30                          0.0441844               1.2023
        31                          0.0884989               2.4082
        32                          0.1187292               3.2308
        33                          0.1484979               4.0408
        34                          0.1574526               4.2845
        35                          0.1628573               4.4316
        36                          0.2085040               5.6737
       ...                                ...                  ...
        43                          0.6799318              18.5019
      -------------------------------------------------------------
                  HL-Gap            0.1065758 Eh            2.9001 eV
             Fermi-level           -0.3671139 Eh           -9.9897 eV

     #   Z        covCN         q      C6AA      α(0)
     1   6 C      2.754     0.274    22.376     7.746
     2   6 C      2.896    -0.058    29.452     8.898
     3   6 C      2.887    -0.059    29.462     8.899
     4   6 C      2.688     0.372    20.702     7.446
     5   8 O      1.646    -0.429    21.425     6.248
     6   8 O      0.858    -0.480    23.338     6.477
     7   8 O      0.875    -0.486    23.475     6.496
     8   7 N      2.691    -0.135    23.926     7.265
     9   6 C      3.690    -0.069    22.023     6.716
    10   1 H      0.925     0.097     1.813     2.106
    11   1 H      0.925     0.094     1.844     2.123
    12   1 H      0.806     0.391     0.501     1.111
    13   1 H      0.925     0.090     1.879     2.144
    14   1 H      0.925     0.086     1.916     2.165
    15   1 H      0.925     0.086     1.915     2.164
    16   1 H      0.860     0.227     0.977     1.549

 Mol. C6AA /au·bohr⁶  :       2745.529319
 Mol. C8AA /au·bohr⁸  :      62348.173805
 Mol. α(0) /au        :         79.552733


Wiberg/Mayer (AO) data.
largest (>0.10) Wiberg bond orders for each atom
          total WBO             WBO to atom ...
     1  C   3.954        O    7 1.520    N    8 1.342    C    2 1.025
     2  C   3.982        C    3 1.847    C    1 1.025    H   10 0.955
     3  C   3.975        C    2 1.847    C    4 1.002    H   11 0.959
     4  C   3.919        O    6 1.663    O    5 1.222    C    3 1.002
     5  O   2.192        C    4 1.222    H   12 0.683    O    6 0.177
     6  O   1.964        C    4 1.663    O    5 0.177
     7  O   2.030        C    1 1.520    N    8 0.197    H   12 0.143
     8  N   3.527        C    1 1.342    C    9 1.001    H   16 0.919    O    7 0.197
     9  C   3.946        N    8 1.001    H   13 0.976    H   15 0.968    H   14 0.967
    10  H   0.991        C    2 0.955
    11  H   0.990        C    3 0.959
    12  H   0.847        O    5 0.683    O    7 0.143
    13  H   0.992        C    9 0.976
    14  H   0.989        C    9 0.967
    15  H   0.989        C    9 0.968
    16  H   0.948        N    8 0.919

molecular dipole:
                 x           y           z       tot (Debye)
 q only:       -4.030       1.729       0.319
   full:       -4.208       2.029       0.360      11.909
molecular quadrupole (traceless):
                xx          xy          yy          xz          yz          zz
 q only:       -5.089      -1.356       4.097       0.326       0.190       0.991
  q+dip:       -7.117      -2.631       4.945       0.269       0.135       2.172
   full:       -8.163      -2.169       4.131       0.397      -0.214       4.031


           -------------------------------------------------
          | TOTAL ENERGY              -29.398891805917 Eh   |
          | GRADIENT NORM               0.000067556139 Eh/α |
          | HOMO-LUMO GAP               2.900076431857 eV   |
           -------------------------------------------------

------------------------------------------------------------------------
 * finished run on 2020/05/18 at 20:15:13.533     
------------------------------------------------------------------------
 total:
 * wall-time:     0 d,  0 h,  0 min,  0.041 sec
 *  cpu-time:     0 d,  0 h,  0 min,  0.149 sec
 * ratio c/w:     3.641 speedup
 SCF:
 * wall-time:     0 d,  0 h,  0 min,  0.012 sec
 *  cpu-time:     0 d,  0 h,  0 min,  0.047 sec
 * ratio c/w:     3.994 speedup


-------------------------   --------------------
FINAL SINGLE POINT ENERGY       -29.398891805920
-------------------------   --------------------

------------------------------------------------------------------------------
                         ORCA GEOMETRY RELAXATION STEP
------------------------------------------------------------------------------

Reading the OPT-File                    .... done
Getting information on internals        .... done
Copying old internal coords+grads       .... done
Making the new internal coordinates     .... (new redundants).... done
Validating the new internal coordinates .... (new redundants).... done
Calculating the B-matrix                .... done
Calculating the G,G- and P matrices     .... done
Transforming gradient to internals      .... done
Projecting the internal gradient        .... done
Number of atoms                         ....  16
Number of internal coordinates          ....  61
Current Energy                          ....   -29.398891806 Eh
Current gradient norm                   ....     0.000067556 Eh/bohr
Maximum allowed component of the step   ....  0.300
Current trust radius                    ....  0.300
Evaluating the initial hessian          ....  (Almloef) done
Projecting the Hessian                  .... done
Forming the augmented Hessian           .... done
Diagonalizing the augmented Hessian     .... done
Last element of RFO vector              ....  0.999999201
Lowest eigenvalues of augmented Hessian:
 -0.000000037  0.012594586  0.013649259  0.018003151  0.022951754
Length of the computed step             ....  0.001264480
The final length of the internal step   ....  0.001264480
Converting the step to cartesian space:
 Initial RMS(Int)=    0.0001619000
Transforming coordinates:
 Iter   0:  RMS(Cart)=    0.0001117581 RMS(Int)=    0.0001619003
 Iter   1:  RMS(Cart)=    0.0000000385 RMS(Int)=    0.0000000273
done
Storing new coordinates                 .... done

                                .--------------------.
          ----------------------|Geometry convergence|-------------------------
          Item                value                   Tolerance       Converged
          ---------------------------------------------------------------------
          RMS gradient        0.0000040942            0.0001000000      YES
          MAX gradient        0.0000160741            0.0003000000      YES
          RMS step            0.0001619000            0.0020000000      YES
          MAX step            0.0006057381            0.0040000000      YES
          ........................................................
          Max(Bonds)      0.0000      Max(Angles)    0.00
          Max(Dihed)        0.03      Max(Improp)    0.00
          ---------------------------------------------------------------------

                    ***********************HURRAY********************
                    ***        THE OPTIMIZATION HAS CONVERGED     ***
                    *************************************************


    ---------------------------------------------------------------------------
                         Redundant Internal Coordinates

                          --- Optimized Parameters ---  
                            (Angstroem and degrees)

        Definition                    OldVal   dE/dq     Step     FinalVal
    ----------------------------------------------------------------------------
     1. B(C   1,C   0)                1.4809  0.000000 -0.0000    1.4809   
     2. B(C   2,C   1)                1.3379 -0.000002  0.0000    1.3379   
     3. B(C   3,C   2)                1.4921 -0.000001  0.0000    1.4921   
     4. B(O   4,C   3)                1.3106 -0.000001  0.0000    1.3106   
     5. B(O   5,C   3)                1.2195  0.000000 -0.0000    1.2195   
     6. B(O   6,C   0)                1.2414  0.000000 -0.0000    1.2414   
     7. B(N   7,C   0)                1.3331 -0.000002  0.0000    1.3331   
     8. B(C   8,N   7)                1.4438  0.000001 -0.0000    1.4438   
     9. B(H   9,C   1)                1.0825 -0.000000  0.0000    1.0825   
    10. B(H  10,C   2)                1.0830  0.000000 -0.0000    1.0830   
    11. B(H  11,O   4)                1.0297  0.000001 -0.0000    1.0297   
    12. B(H  12,C   8)                1.0882 -0.000000  0.0000    1.0882   
    13. B(H  13,C   8)                1.0898 -0.000000  0.0000    1.0898   
    14. B(H  14,C   8)                1.0897 -0.000000  0.0000    1.0897   
    15. B(H  15,N   7)                1.0099  0.000000 -0.0000    1.0099   
    16. A(C   1,C   0,O   6)          124.09 -0.000001    0.00    124.09   
    17. A(C   1,C   0,N   7)          114.15  0.000001   -0.00    114.15   
    18. A(O   6,C   0,N   7)          121.75  0.000000   -0.00    121.75   
    19. A(C   0,C   1,C   2)          129.42 -0.000004    0.00    129.42   
    20. A(C   0,C   1,H   9)          114.11  0.000000   -0.00    114.11   
    21. A(C   2,C   1,H   9)          116.47  0.000003   -0.00    116.47   
    22. A(C   1,C   2,H  10)          117.79  0.000002   -0.00    117.79   
    23. A(C   1,C   2,C   3)          132.14 -0.000004    0.00    132.14   
    24. A(C   3,C   2,H  10)          110.07  0.000002   -0.00    110.07   
    25. A(C   2,C   3,O   4)          120.34 -0.000002    0.00    120.34   
    26. A(O   4,C   3,O   5)          121.12  0.000001   -0.00    121.12   
    27. A(C   2,C   3,O   5)          118.54  0.000001   -0.00    118.54   
    28. A(C   3,O   4,H  11)          113.08  0.000000   -0.00    113.08   
    29. A(C   8,N   7,H  15)          116.67 -0.000007    0.00    116.67   
    30. A(C   0,N   7,H  15)          119.83  0.000004   -0.00    119.82   
    31. A(C   0,N   7,C   8)          123.50  0.000003   -0.00    123.50   
    32. A(N   7,C   8,H  12)          108.47  0.000001   -0.00    108.47   
    33. A(H  13,C   8,H  14)          109.29  0.000001   -0.00    109.29   
    34. A(H  12,C   8,H  14)          109.51 -0.000000    0.00    109.51   
    35. A(N   7,C   8,H  14)          110.02 -0.000002    0.00    110.02   
    36. A(H  12,C   8,H  13)          109.47  0.000001   -0.00    109.47   
    37. A(N   7,C   8,H  13)          110.06 -0.000001    0.00    110.06   
    38. D(C   2,C   1,C   0,N   7)    179.38 -0.000002    0.01    179.39   
    39. D(C   2,C   1,C   0,O   6)     -0.60 -0.000002    0.01     -0.59   
    40. D(H   9,C   1,C   0,N   7)     -0.61 -0.000001    0.01     -0.61   
    41. D(H   9,C   1,C   0,O   6)    179.41 -0.000001    0.01    179.42   
    42. D(H  10,C   2,C   1,C   0)   -179.99 -0.000001    0.00   -179.99   
    43. D(C   3,C   2,C   1,H   9)    179.93 -0.000005    0.01    179.94   
    44. D(H  10,C   2,C   1,H   9)     -0.00 -0.000002    0.00     -0.00   
    45. D(C   3,C   2,C   1,C   0)     -0.06 -0.000004    0.01     -0.05   
    46. D(O   5,C   3,C   2,H  10)      0.10 -0.000011    0.03      0.13   
    47. D(O   5,C   3,C   2,C   1)   -179.83 -0.000009    0.02   -179.81   
    48. D(O   4,C   3,C   2,H  10)   -179.90  0.000011   -0.03   -179.92   
    49. D(O   4,C   3,C   2,C   1)      0.17  0.000013   -0.03      0.13   
    50. D(H  11,O   4,C   3,O   5)   -179.92  0.000007   -0.02   -179.94   
    51. D(H  11,O   4,C   3,C   2)      0.08 -0.000016    0.03      0.11   
    52. D(C   8,N   7,C   0,C   1)    179.94 -0.000001    0.00    179.94   
    53. D(H  15,N   7,C   0,O   6)   -179.80  0.000002   -0.00   -179.80   
    54. D(H  15,N   7,C   0,C   1)      0.23  0.000002   -0.00      0.22   
    55. D(C   8,N   7,C   0,O   6)     -0.09 -0.000001    0.00     -0.08   
    56. D(H  14,C   8,N   7,H  15)    -59.76 -0.000002    0.00    -59.75   
    57. D(H  14,C   8,N   7,C   0)    120.53  0.000002   -0.00    120.52   
    58. D(H  13,C   8,N   7,H  15)     60.73 -0.000002    0.00     60.73   
    59. D(H  13,C   8,N   7,C   0)   -118.99  0.000001   -0.00   -118.99   
    60. D(H  12,C   8,N   7,H  15)   -179.53 -0.000001    0.00   -179.53   
    61. D(H  12,C   8,N   7,C   0)      0.75  0.000002   -0.00      0.75   
    ----------------------------------------------------------------------------
                 *******************************************************
                 *** FINAL ENERGY EVALUATION AT THE STATIONARY POINT ***
                 ***               (AFTER    1 CYCLES)               ***
                 *******************************************************
      -----------------------------------------------------------      
     |                   =====================                   |     
     |                           x T B                           |     
     |                   =====================                   |     
     |                         S. Grimme                         |     
     |          Mulliken Center for Theoretical Chemistry        |     
     |                    University of Bonn                     |     
      -----------------------------------------------------------      

   * xtb version 6.3.0 (preview) compiled by 'ehlert@majestix' on 2019-12-12

   This program is distributed in the hope that it will be useful,
   but WITHOUT ANY WARRANTY; without even the implied warranty of
   MERCHANTABILITY or FITNESS FOR A PARTICULAR PURPOSE.
   
   FOR NON-COMMERCIAL, ACADEMIA USE ONLY.
   
   Cite this work as:
   * S. Grimme, C. Bannwarth, P. Shushkov, J. Chem. Theory Comput., 2017,
     13, 1989-2009. DOI: 10.1021/acs.jctc.7b00118
   * C. Bannwarth, S. Ehlert and S. Grimme., J. Chem. Theory Comput., 2019,
     15, 1652-1671. DOI: 10.1021/acs.jctc.8b01176
   * P. Pracht, E. Caldeweyher, S. Ehlert, S. Grimme, ChemRxiv, 2019, preprint.
     DOI: 10.26434/chemrxiv.8326202.v1
   * S. Grimme, S. Spicher unpublished
   
   for DFT-D4:
   * E. Caldeweyher, C. Bannwarth and S. Grimme, J. Chem. Phys., 2017,
     147, 034112. DOI: 10.1063/1.4993215
   * E. Caldeweyher, S. Ehlert, A. Hansen, H. Neugebauer, S. Spicher,
     C. Bannwarth and S. Grimme, J. Chem. Phys., 2019, 150, 154122.
     DOI: 10.1063/1.5090222
   
   for sTDA-xTB:
   * S. Grimme and C. Bannwarth, J. Chem. Phys., 2016, 145, 054103.
     DOI: 10.1063/1.4959605
   
   in the mass-spec context:
   * V. Asgeirsson, C. Bauer and S. Grimme, Chem. Sci., 2017, 8, 4879.
     DOI: 10.1039/c7sc00601b
   
   for metadynamics refer to:
   * S. Grimme, J. Chem. Theory Comput., 2019, 155, 2847-2862
     DOI: 10.1021/acs.jctc.9b00143
   
   with help from (in alphabetical order)
   C. Bannwarth, F. Bohle, G. Brandenburg, E. Caldeweyher, M. Checinski,
   S. Dohm, S. Ehlert, S. Ehrlich, F. März, H. Neugebauer, J. Pisarek,
   P. Pracht, P. Shushkov, and S. Spicher.
   
 * started run on 2020/05/18 at 20:15:13.642     

           -------------------------------------------------
          |                Calculation Setup                |
           -------------------------------------------------

          program call               : /opt/orca/otool_xtb N-methyl-maleamic-acid_XTB.xyz --grad -c 0 -u 0 -P 4 --namespace N-methyl-maleamic-acid --gbsa H2O
          calculation namespace      : N-methyl-maleamic-acid
          coordinate file            : N-methyl-maleamic-acid_XTB.xyz
          omp threads                :                     4
          number of atoms            :                    16
          number of electrons        :                    50
          charge                     :                     0
          spin                       :                   0.0
          first test random number   :      0.60013356758810


########################################################################
# WARNING! Please study the warnings concerning your input carefully
#  - Process number higher than OMP_NUM_THREADS, I hope you know what you are doing.
########################################################################

           ------------------------------------------------- 
          |                 G F N 2 - x T B                 |
          | Geometry, Frequencies, Noncovalent interactions |
          |            JCTC 2019 parametrisation            |
           ------------------------------------------------- 
             k(s)              :                1.8500
             k(p)              :                2.2300
             k(d)              :                2.2300
             k(f)              :                2.0000
             kEN (H0ij)        :               -2.0000
             D4 a1             :                0.5200
             D4 a2             :                5.0000
             D4 s6             :                1.0000
             D4 s8             :                2.7000
             D4 s9             :                5.0000
             alphaj            :                2.0000

  Z AO/shell   Hii/eV     exponent
  1     Wed Apr 25 08:07:45 CEST 2018   EN: 2.200 GM2: 0.406  GM3: 0.0800  RAES: 1.40
     1s    -10.707211    1.230000
  6     Wed Apr 25 08:07:45 CEST 2018   EN: 2.550 GM2: 0.538  GM3: 0.1500  RAES: 3.00
     2s    -13.970922    2.096432
     2p    -10.063292    1.800000
  7     Wed Apr 25 08:07:45 CEST 2018   EN: 3.040 GM2: 0.461  GM3:-0.0640  RAES: 1.90
     2s    -16.686243    2.339881
     2p    -12.523956    2.014332
  8     Wed Apr 25 08:07:45 CEST 2018   EN: 3.440 GM2: 0.452  GM3:-0.0517  RAES: 1.80
     2s    -20.229985    2.439742
     2p    -15.503117    2.137023

 Solvent             : H2O
 Using internal parameter file: .param_gbsa2_H2O
 Gsolv ref. state (COSMO-RS): gsolv [1 M gas/solution]
 temperature (mdtemp)       :    298.150000000000     
 dielectric constant        :    80.2000000000000     
 rho                        :    1.00000000000000     
 mass                       :    18.0000000000000     
 surface tension            :    15.5689454083859     
 probe radius               :   0.975313790000000     
 Gshift (Eh)                :   1.857443126794793E-003
 c1                         :    1.55243817000000     
 soset                      :   0.130326360000000     
 HB correction              :  T
           ------------------------------------------------- 
          |        Self-Consistent Charge Iterations        |
           ------------------------------------------------- 

          ...................................................
          :                      SETUP                      :
          :.................................................:
          :  # basis functions                  43          :
          :  # atomic orbitals                  43          :
          :  # shells                           25          :
          :  # electrons                        50          :
          :  max. iterations                   250          :
          :  Hamiltonian                  GFN2-xTB          :
          :  GBSA solvation                   true          :
          :  PC potential                    false          :
          :  electronic temp.          300.0000000     K    :
          :  accuracy                    1.0000000          :
          :  -> integral cutoff          0.2500000E+02      :
          :  -> integral neglect         0.1000000E-07      :
          :  -> SCF convergence          0.1000000E-05 Eh   :
          :  -> wf. convergence          0.1000000E-03 e    :
          :  Broyden damping             0.4000000          :
          ...................................................
  Checking positiv definite overlap ...  done.
 

 iter      E             dE          RMSdq      gap      omega  full diag
   1    -29.6172146 -0.296172E+02  0.554E+00    2.44       0.0  T
   2    -29.7048984 -0.876838E-01  0.306E+00    2.81       1.0  T
   3    -29.7083994 -0.350097E-02  0.161E+00    2.89       1.0  T
   4    -29.7080416  0.357755E-03  0.765E-01    2.84       1.0  T
   5    -29.7138898 -0.584818E-02  0.131E-01    2.89       1.0  T
   6    -29.7139308 -0.410492E-04  0.674E-02    2.90       1.0  T
   7    -29.7139425 -0.117002E-04  0.296E-02    2.90       1.0  T
   8    -29.7139442 -0.160701E-05  0.983E-03    2.90       2.5  T
   9    -29.7139444 -0.213338E-06  0.279E-03    2.90       9.0  T
  10    -29.7139444 -0.118661E-07  0.123E-03    2.90      20.3  T
  11    -29.7139444 -0.180376E-08  0.281E-04    2.90      89.1  T
  12    -29.7139444 -0.217465E-09  0.133E-04    2.90     187.6  T

   *** convergence criteria satisfied after 12 iterations ***

         #    Occupation            Energy/Eh            Energy/eV
      -------------------------------------------------------------
         1        2.0000           -0.7386893             -20.1008
       ...           ...                  ...                  ...
        19        2.0000           -0.4953496             -13.4791
        20        2.0000           -0.4768016             -12.9744
        21        2.0000           -0.4715573             -12.8317
        22        2.0000           -0.4571784             -12.4405
        23        2.0000           -0.4279312             -11.6446
        24        2.0000           -0.4247432             -11.5579
        25        2.0000           -0.4204025             -11.4397 (HOMO)
        26                         -0.3138261              -8.5396 (LUMO)
        27                         -0.2205905              -6.0026
        28                         -0.1587817              -4.3207
        29                         -0.0091883              -0.2500
        30                          0.0441829               1.2023
       ...                                ...                  ...
        43                          0.6799302              18.5018
      -------------------------------------------------------------
                  HL-Gap            0.1065764 Eh            2.9001 eV
             Fermi-level           -0.3671143 Eh           -9.9897 eV

 SCC (total)                   0 d,  0 h,  0 min,  0.011 sec
 SCC setup                      ...        0 min,  0.000 sec (  3.116%)
 Dispersion                     ...        0 min,  0.000 sec (  0.926%)
 integral evaluation            ...        0 min,  0.003 sec ( 22.117%)
 zeroth order Hamiltonian       ...        0 min,  0.000 sec (  0.052%)
 iterations                     ...        0 min,  0.005 sec ( 42.362%)
 molecular gradient             ...        0 min,  0.003 sec ( 29.474%)
 printout                       ...        0 min,  0.000 sec (  1.794%)

         :::::::::::::::::::::::::::::::::::::::::::::::::::::
         ::                     SUMMARY                     ::
         :::::::::::::::::::::::::::::::::::::::::::::::::::::
         :: total energy             -29.398891803759 Eh    ::
         :: total w/o Gsasa/hb       -29.394509162821 Eh    ::
         :: gradient norm              0.000075010146 Eh/a0 ::
         :: HOMO-LUMO gap              2.900091192774 eV    ::
         ::.................................................::
         :: SCC energy               -29.712728161588 Eh    ::
         :: -> isotropic ES            0.114138358982 Eh    ::
         :: -> anisotropic ES         -0.002654434744 Eh    ::
         :: -> anisotropic XC          0.004642889181 Eh    ::
         :: -> dispersion             -0.010455257341 Eh    ::
         :: -> Gsolv                  -0.025465693839 Eh    ::
         ::    -> Gborn               -0.021083052901 Eh    ::
         ::    -> Gsasa               -0.000641221364 Eh    ::
         ::    -> Ghb                 -0.005598862701 Eh    ::
         ::    -> Gshift               0.001857443127 Eh    ::
         :: repulsion energy           0.313848736007 Eh    ::
         :: add. restraining           0.000000000000 Eh    ::
         :::::::::::::::::::::::::::::::::::::::::::::::::::::

           -------------------------------------------------
          |                Property Printout                |
           -------------------------------------------------

    * Orbital Energies and Occupations

         #    Occupation            Energy/Eh            Energy/eV
      -------------------------------------------------------------
         1        2.0000           -0.7386893             -20.1008
       ...           ...                  ...                  ...
        13        2.0000           -0.5609176             -15.2633
        14        2.0000           -0.5572834             -15.1645
        15        2.0000           -0.5365448             -14.6001
        16        2.0000           -0.5178141             -14.0904
        17        2.0000           -0.5104942             -13.8913
        18        2.0000           -0.5001764             -13.6105
        19        2.0000           -0.4953496             -13.4791
        20        2.0000           -0.4768016             -12.9744
        21        2.0000           -0.4715573             -12.8317
        22        2.0000           -0.4571784             -12.4405
        23        2.0000           -0.4279312             -11.6446
        24        2.0000           -0.4247432             -11.5579
        25        2.0000           -0.4204025             -11.4397 (HOMO)
        26                         -0.3138261              -8.5396 (LUMO)
        27                         -0.2205905              -6.0026
        28                         -0.1587817              -4.3207
        29                         -0.0091883              -0.2500
        30                          0.0441829               1.2023
        31                          0.0884970               2.4081
        32                          0.1187216               3.2306
        33                          0.1484991               4.0409
        34                          0.1574509               4.2845
        35                          0.1628573               4.4316
        36                          0.2085029               5.6737
       ...                                ...                  ...
        43                          0.6799302              18.5018
      -------------------------------------------------------------
                  HL-Gap            0.1065764 Eh            2.9001 eV
             Fermi-level           -0.3671143 Eh           -9.9897 eV

     #   Z        covCN         q      C6AA      α(0)
     1   6 C      2.754     0.274    22.376     7.746
     2   6 C      2.896    -0.058    29.452     8.898
     3   6 C      2.887    -0.059    29.462     8.899
     4   6 C      2.688     0.372    20.702     7.446
     5   8 O      1.646    -0.429    21.425     6.248
     6   8 O      0.858    -0.480    23.338     6.477
     7   8 O      0.875    -0.486    23.476     6.496
     8   7 N      2.691    -0.135    23.926     7.265
     9   6 C      3.690    -0.069    22.023     6.716
    10   1 H      0.925     0.097     1.813     2.106
    11   1 H      0.925     0.094     1.844     2.123
    12   1 H      0.806     0.391     0.501     1.111
    13   1 H      0.925     0.090     1.879     2.144
    14   1 H      0.925     0.086     1.916     2.165
    15   1 H      0.925     0.086     1.915     2.164
    16   1 H      0.860     0.227     0.977     1.549

 Mol. C6AA /au·bohr⁶  :       2745.530067
 Mol. C8AA /au·bohr⁸  :      62348.179803
 Mol. α(0) /au        :         79.552748


Wiberg/Mayer (AO) data.
largest (>0.10) Wiberg bond orders for each atom
          total WBO             WBO to atom ...
     1  C   3.954        O    7 1.520    N    8 1.342    C    2 1.025
     2  C   3.982        C    3 1.847    C    1 1.025    H   10 0.955
     3  C   3.975        C    2 1.847    C    4 1.002    H   11 0.959
     4  C   3.919        O    6 1.663    O    5 1.222    C    3 1.002
     5  O   2.192        C    4 1.222    H   12 0.683    O    6 0.177
     6  O   1.964        C    4 1.663    O    5 0.177
     7  O   2.030        C    1 1.520    N    8 0.197    H   12 0.143
     8  N   3.527        C    1 1.342    C    9 1.001    H   16 0.919    O    7 0.197
     9  C   3.946        N    8 1.001    H   13 0.976    H   15 0.968    H   14 0.967
    10  H   0.991        C    2 0.955
    11  H   0.990        C    3 0.959
    12  H   0.847        O    5 0.683    O    7 0.143
    13  H   0.992        C    9 0.976
    14  H   0.989        C    9 0.967
    15  H   0.989        C    9 0.968
    16  H   0.948        N    8 0.919

molecular dipole:
                 x           y           z       tot (Debye)
 q only:       -4.030       1.729       0.319
   full:       -4.208       2.029       0.359      11.909
molecular quadrupole (traceless):
                xx          xy          yy          xz          yz          zz
 q only:       -5.089      -1.356       4.097       0.324       0.190       0.992
  q+dip:       -7.118      -2.631       4.945       0.266       0.136       2.173
   full:       -8.163      -2.168       4.131       0.393      -0.213       4.032

           -------------------------------------------------
          |                Property Printout                |
           -------------------------------------------------

    * Orbital Energies and Occupations

         #    Occupation            Energy/Eh            Energy/eV
      -------------------------------------------------------------
         1        2.0000           -0.7386893             -20.1008
       ...           ...                  ...                  ...
        13        2.0000           -0.5609176             -15.2633
        14        2.0000           -0.5572834             -15.1645
        15        2.0000           -0.5365448             -14.6001
        16        2.0000           -0.5178141             -14.0904
        17        2.0000           -0.5104942             -13.8913
        18        2.0000           -0.5001764             -13.6105
        19        2.0000           -0.4953496             -13.4791
        20        2.0000           -0.4768016             -12.9744
        21        2.0000           -0.4715573             -12.8317
        22        2.0000           -0.4571784             -12.4405
        23        2.0000           -0.4279312             -11.6446
        24        2.0000           -0.4247432             -11.5579
        25        2.0000           -0.4204025             -11.4397 (HOMO)
        26                         -0.3138261              -8.5396 (LUMO)
        27                         -0.2205905              -6.0026
        28                         -0.1587817              -4.3207
        29                         -0.0091883              -0.2500
        30                          0.0441829               1.2023
        31                          0.0884970               2.4081
        32                          0.1187216               3.2306
        33                          0.1484991               4.0409
        34                          0.1574509               4.2845
        35                          0.1628573               4.4316
        36                          0.2085029               5.6737
       ...                                ...                  ...
        43                          0.6799302              18.5018
      -------------------------------------------------------------
                  HL-Gap            0.1065764 Eh            2.9001 eV
             Fermi-level           -0.3671143 Eh           -9.9897 eV

     #   Z        covCN         q      C6AA      α(0)
     1   6 C      2.754     0.274    22.376     7.746
     2   6 C      2.896    -0.058    29.452     8.898
     3   6 C      2.887    -0.059    29.462     8.899
     4   6 C      2.688     0.372    20.702     7.446
     5   8 O      1.646    -0.429    21.425     6.248
     6   8 O      0.858    -0.480    23.338     6.477
     7   8 O      0.875    -0.486    23.476     6.496
     8   7 N      2.691    -0.135    23.926     7.265
     9   6 C      3.690    -0.069    22.023     6.716
    10   1 H      0.925     0.097     1.813     2.106
    11   1 H      0.925     0.094     1.844     2.123
    12   1 H      0.806     0.391     0.501     1.111
    13   1 H      0.925     0.090     1.879     2.144
    14   1 H      0.925     0.086     1.916     2.165
    15   1 H      0.925     0.086     1.915     2.164
    16   1 H      0.860     0.227     0.977     1.549

 Mol. C6AA /au·bohr⁶  :       2745.530067
 Mol. C8AA /au·bohr⁸  :      62348.179803
 Mol. α(0) /au        :         79.552748


Wiberg/Mayer (AO) data.
largest (>0.10) Wiberg bond orders for each atom
          total WBO             WBO to atom ...
     1  C   3.954        O    7 1.520    N    8 1.342    C    2 1.025
     2  C   3.982        C    3 1.847    C    1 1.025    H   10 0.955
     3  C   3.975        C    2 1.847    C    4 1.002    H   11 0.959
     4  C   3.919        O    6 1.663    O    5 1.222    C    3 1.002
     5  O   2.192        C    4 1.222    H   12 0.683    O    6 0.177
     6  O   1.964        C    4 1.663    O    5 0.177
     7  O   2.030        C    1 1.520    N    8 0.197    H   12 0.143
     8  N   3.527        C    1 1.342    C    9 1.001    H   16 0.919    O    7 0.197
     9  C   3.946        N    8 1.001    H   13 0.976    H   15 0.968    H   14 0.967
    10  H   0.991        C    2 0.955
    11  H   0.990        C    3 0.959
    12  H   0.847        O    5 0.683    O    7 0.143
    13  H   0.992        C    9 0.976
    14  H   0.989        C    9 0.967
    15  H   0.989        C    9 0.968
    16  H   0.948        N    8 0.919

molecular dipole:
                 x           y           z       tot (Debye)
 q only:       -4.030       1.729       0.319
   full:       -4.208       2.029       0.359      11.909
molecular quadrupole (traceless):
                xx          xy          yy          xz          yz          zz
 q only:       -5.089      -1.356       4.097       0.324       0.190       0.992
  q+dip:       -7.118      -2.631       4.945       0.266       0.136       2.173
   full:       -8.163      -2.168       4.131       0.393      -0.213       4.032


           -------------------------------------------------
          | TOTAL ENERGY              -29.398891803759 Eh   |
          | GRADIENT NORM               0.000075010146 Eh/α |
          | HOMO-LUMO GAP               2.900091192774 eV   |
           -------------------------------------------------

------------------------------------------------------------------------
 * finished run on 2020/05/18 at 20:15:13.689     
------------------------------------------------------------------------
 total:
 * wall-time:     0 d,  0 h,  0 min,  0.047 sec
 *  cpu-time:     0 d,  0 h,  0 min,  0.172 sec
 * ratio c/w:     3.648 speedup
 SCF:
 * wall-time:     0 d,  0 h,  0 min,  0.012 sec
 *  cpu-time:     0 d,  0 h,  0 min,  0.046 sec
 * ratio c/w:     3.993 speedup


-------------------------   --------------------
FINAL SINGLE POINT ENERGY       -29.398891803760
-------------------------   --------------------

                                *** OPTIMIZATION RUN DONE ***

----------------------------------------------------------------------------
                           ORCA NUMERICAL FREQUENCIES
                              (4-process run)
----------------------------------------------------------------------------

Number of atoms                ... 16
Central differences            ... used
Number of displacements        ... 96
Numerical increment            ... 5.000e-03 bohr
IR-spectrum generation         ... on
Raman-spectrum generation      ... off
Surface Crossing Hessian       ... off
List of participating nodes    ...  N-methyl-maleamic-acid.hostnames

The output will be reduced. Please look at the following files:
SCF program output             ... >N-methyl-maleamic-acid.lastscf
Integral program output        ... >N-methyl-maleamic-acid.lastint
Gradient program output        ... >N-methyl-maleamic-acid.lastgrad
Dipole moment program output   ... >N-methyl-maleamic-acid.lastmom
AutoCI program output          ... >N-methyl-maleamic-acid.lastautoci


         <<< Energy and Gradient at the input geometry >>>

        <<< Energy and Gradient at displaced geometries >>>
             <<<Displacing   1/coordinate 1 (+)>>>
             <<<Displacing   2/coordinate 1 (+)>>>
             <<<Displacing   1/coordinate 2 (+)>>>
             <<<Displacing   1/coordinate 3 (+)>>>
             <<<Displacing   2/coordinate 1 (-)>>>
             <<<Displacing   1/coordinate 1 (-)>>>
             <<<Displacing   1/coordinate 3 (-)>>>
             <<<Displacing   1/coordinate 2 (-)>>>
             <<<Displacing   2/coordinate 2 (+)>>>
             <<<Displacing   2/coordinate 3 (+)>>>
             <<<Displacing   3/coordinate 1 (+)>>>
             <<<Displacing   3/coordinate 2 (+)>>>
             <<<Displacing   2/coordinate 2 (-)>>>
             <<<Displacing   2/coordinate 3 (-)>>>
             <<<Displacing   3/coordinate 2 (-)>>>
             <<<Displacing   3/coordinate 1 (-)>>>
             <<<Displacing   4/coordinate 3 (+)>>>
             <<<Displacing   4/coordinate 1 (+)>>>
             <<<Displacing   3/coordinate 3 (+)>>>
             <<<Displacing   4/coordinate 2 (+)>>>
             <<<Displacing   4/coordinate 1 (-)>>>
             <<<Displacing   4/coordinate 2 (-)>>>
             <<<Displacing   4/coordinate 3 (-)>>>
             <<<Displacing   3/coordinate 3 (-)>>>
             <<<Displacing   5/coordinate 1 (+)>>>
             <<<Displacing   6/coordinate 1 (+)>>>
             <<<Displacing   5/coordinate 3 (+)>>>
             <<<Displacing   5/coordinate 2 (+)>>>
             <<<Displacing   5/coordinate 1 (-)>>>
             <<<Displacing   6/coordinate 1 (-)>>>
             <<<Displacing   5/coordinate 3 (-)>>>
             <<<Displacing   5/coordinate 2 (-)>>>
             <<<Displacing   6/coordinate 2 (+)>>>
             <<<Displacing   6/coordinate 3 (+)>>>
             <<<Displacing   7/coordinate 1 (+)>>>
             <<<Displacing   7/coordinate 2 (+)>>>
             <<<Displacing   6/coordinate 2 (-)>>>
             <<<Displacing   6/coordinate 3 (-)>>>
             <<<Displacing   7/coordinate 1 (-)>>>
             <<<Displacing   7/coordinate 2 (-)>>>
             <<<Displacing   7/coordinate 3 (+)>>>
             <<<Displacing   8/coordinate 1 (+)>>>
             <<<Displacing   8/coordinate 2 (+)>>>
             <<<Displacing   8/coordinate 3 (+)>>>
             <<<Displacing   7/coordinate 3 (-)>>>
             <<<Displacing   8/coordinate 1 (-)>>>
             <<<Displacing   8/coordinate 2 (-)>>>
             <<<Displacing   8/coordinate 3 (-)>>>
             <<<Displacing   9/coordinate 1 (+)>>>
             <<<Displacing   9/coordinate 2 (+)>>>
             <<<Displacing   9/coordinate 3 (+)>>>
             <<<Displacing   9/coordinate 2 (-)>>>
             <<<Displacing   9/coordinate 1 (-)>>>
             <<<Displacing  10/coordinate 1 (+)>>>
             <<<Displacing   9/coordinate 3 (-)>>>
             <<<Displacing  10/coordinate 1 (-)>>>
             <<<Displacing  10/coordinate 2 (+)>>>
             <<<Displacing  10/coordinate 3 (+)>>>
             <<<Displacing  10/coordinate 3 (-)>>>
             <<<Displacing  10/coordinate 2 (-)>>>
             <<<Displacing  11/coordinate 1 (+)>>>
             <<<Displacing  11/coordinate 2 (+)>>>
             <<<Displacing  11/coordinate 1 (-)>>>
             <<<Displacing  11/coordinate 2 (-)>>>
             <<<Displacing  11/coordinate 3 (+)>>>
             <<<Displacing  12/coordinate 1 (+)>>>
             <<<Displacing  11/coordinate 3 (-)>>>
             <<<Displacing  12/coordinate 1 (-)>>>
             <<<Displacing  12/coordinate 2 (+)>>>
             <<<Displacing  12/coordinate 2 (-)>>>
             <<<Displacing  12/coordinate 3 (+)>>>
             <<<Displacing  12/coordinate 3 (-)>>>
             <<<Displacing  13/coordinate 1 (+)>>>
             <<<Displacing  13/coordinate 2 (+)>>>
             <<<Displacing  13/coordinate 3 (+)>>>
             <<<Displacing  13/coordinate 2 (-)>>>
             <<<Displacing  13/coordinate 1 (-)>>>
             <<<Displacing  13/coordinate 3 (-)>>>
             <<<Displacing  14/coordinate 1 (+)>>>
             <<<Displacing  14/coordinate 1 (-)>>>
             <<<Displacing  14/coordinate 2 (+)>>>
             <<<Displacing  14/coordinate 3 (+)>>>
             <<<Displacing  15/coordinate 1 (+)>>>
             <<<Displacing  14/coordinate 2 (-)>>>
             <<<Displacing  14/coordinate 3 (-)>>>
             <<<Displacing  15/coordinate 1 (-)>>>
             <<<Displacing  15/coordinate 2 (+)>>>
             <<<Displacing  15/coordinate 2 (-)>>>
             <<<Displacing  15/coordinate 3 (+)>>>
             <<<Displacing  16/coordinate 1 (+)>>>
             <<<Displacing  16/coordinate 2 (+)>>>
             <<<Displacing  15/coordinate 3 (-)>>>
             <<<Displacing  16/coordinate 1 (-)>>>
             <<<Displacing  16/coordinate 2 (-)>>>
             <<<Displacing  16/coordinate 3 (+)>>>
             <<<Displacing  16/coordinate 3 (-)>>>

-----------------------
VIBRATIONAL FREQUENCIES
-----------------------

Scaling factor for frequencies =  1.000000000 (already applied!)

   0:         0.00 cm**-1
   1:         0.00 cm**-1
   2:         0.00 cm**-1
   3:         0.00 cm**-1
   4:         0.00 cm**-1
   5:         0.00 cm**-1
   6:        26.80 cm**-1
   7:        85.95 cm**-1
   8:       109.07 cm**-1
   9:       163.28 cm**-1
  10:       179.43 cm**-1
  11:       291.63 cm**-1
  12:       301.61 cm**-1
  13:       347.92 cm**-1
  14:       388.08 cm**-1
  15:       515.51 cm**-1
  16:       580.70 cm**-1
  17:       586.41 cm**-1
  18:       621.38 cm**-1
  19:       717.99 cm**-1
  20:       753.83 cm**-1
  21:       831.90 cm**-1
  22:       871.10 cm**-1
  23:       932.00 cm**-1
  24:       941.24 cm**-1
  25:       947.76 cm**-1
  26:      1072.81 cm**-1
  27:      1099.90 cm**-1
  28:      1118.57 cm**-1
  29:      1194.22 cm**-1
  30:      1219.35 cm**-1
  31:      1262.62 cm**-1
  32:      1306.58 cm**-1
  33:      1353.12 cm**-1
  34:      1394.68 cm**-1
  35:      1423.79 cm**-1
  36:      1449.12 cm**-1
  37:      1465.74 cm**-1
  38:      1597.11 cm**-1
  39:      1652.92 cm**-1
  40:      1662.95 cm**-1
  41:      2303.95 cm**-1
  42:      3001.39 cm**-1
  43:      3012.59 cm**-1
  44:      3048.14 cm**-1
  45:      3049.84 cm**-1
  46:      3070.26 cm**-1
  47:      3427.02 cm**-1


------------
NORMAL MODES
------------

These modes are the cartesian displacements weighted by the diagonal matrix
M(i,i)=1/sqrt(m[i]) where m[i] is the mass of the displaced atom
Thus, these vectors are normalized but *not* orthogonal

                  0          1          2          3          4          5    
      0       0.000000   0.000000   0.000000   0.000000   0.000000   0.000000
      1       0.000000   0.000000   0.000000   0.000000   0.000000   0.000000
      2       0.000000   0.000000   0.000000   0.000000   0.000000   0.000000
      3       0.000000   0.000000   0.000000   0.000000   0.000000   0.000000
      4       0.000000   0.000000   0.000000   0.000000   0.000000   0.000000
      5       0.000000   0.000000   0.000000   0.000000   0.000000   0.000000
      6       0.000000   0.000000   0.000000   0.000000   0.000000   0.000000
      7       0.000000   0.000000   0.000000   0.000000   0.000000   0.000000
      8       0.000000   0.000000   0.000000   0.000000   0.000000   0.000000
      9       0.000000   0.000000   0.000000   0.000000   0.000000   0.000000
     10       0.000000   0.000000   0.000000   0.000000   0.000000   0.000000
     11       0.000000   0.000000   0.000000   0.000000   0.000000   0.000000
     12       0.000000   0.000000   0.000000   0.000000   0.000000   0.000000
     13       0.000000   0.000000   0.000000   0.000000   0.000000   0.000000
     14       0.000000   0.000000   0.000000   0.000000   0.000000   0.000000
     15       0.000000   0.000000   0.000000   0.000000   0.000000   0.000000
     16       0.000000   0.000000   0.000000   0.000000   0.000000   0.000000
     17       0.000000   0.000000   0.000000   0.000000   0.000000   0.000000
     18       0.000000   0.000000   0.000000   0.000000   0.000000   0.000000
     19       0.000000   0.000000   0.000000   0.000000   0.000000   0.000000
     20       0.000000   0.000000   0.000000   0.000000   0.000000   0.000000
     21       0.000000   0.000000   0.000000   0.000000   0.000000   0.000000
     22       0.000000   0.000000   0.000000   0.000000   0.000000   0.000000
     23       0.000000   0.000000   0.000000   0.000000   0.000000   0.000000
     24       0.000000   0.000000   0.000000   0.000000   0.000000   0.000000
     25       0.000000   0.000000   0.000000   0.000000   0.000000   0.000000
     26       0.000000   0.000000   0.000000   0.000000   0.000000   0.000000
     27       0.000000   0.000000   0.000000   0.000000   0.000000   0.000000
     28       0.000000   0.000000   0.000000   0.000000   0.000000   0.000000
     29       0.000000   0.000000   0.000000   0.000000   0.000000   0.000000
     30       0.000000   0.000000   0.000000   0.000000   0.000000   0.000000
     31       0.000000   0.000000   0.000000   0.000000   0.000000   0.000000
     32       0.000000   0.000000   0.000000   0.000000   0.000000   0.000000
     33       0.000000   0.000000   0.000000   0.000000   0.000000   0.000000
     34       0.000000   0.000000   0.000000   0.000000   0.000000   0.000000
     35       0.000000   0.000000   0.000000   0.000000   0.000000   0.000000
     36       0.000000   0.000000   0.000000   0.000000   0.000000   0.000000
     37       0.000000   0.000000   0.000000   0.000000   0.000000   0.000000
     38       0.000000   0.000000   0.000000   0.000000   0.000000   0.000000
     39       0.000000   0.000000   0.000000   0.000000   0.000000   0.000000
     40       0.000000   0.000000   0.000000   0.000000   0.000000   0.000000
     41       0.000000   0.000000   0.000000   0.000000   0.000000   0.000000
     42       0.000000   0.000000   0.000000   0.000000   0.000000   0.000000
     43       0.000000   0.000000   0.000000   0.000000   0.000000   0.000000
     44       0.000000   0.000000   0.000000   0.000000   0.000000   0.000000
     45       0.000000   0.000000   0.000000   0.000000   0.000000   0.000000
     46       0.000000   0.000000   0.000000   0.000000   0.000000   0.000000
     47       0.000000   0.000000   0.000000   0.000000   0.000000   0.000000
                  6          7          8          9         10         11    
      0       0.002224  -0.000805   0.000458   0.002928  -0.020762  -0.121600
      1      -0.015212   0.010751  -0.004825  -0.024971  -0.160964   0.167581
      2       0.118753  -0.076572   0.024171   0.128955  -0.031318   0.027484
      3       0.004969   0.001362  -0.000524  -0.000564  -0.020053  -0.071656
      4      -0.027552  -0.003496  -0.000225  -0.009991  -0.148067   0.092458
      5       0.215706   0.044542  -0.010871   0.018950  -0.020315   0.028660
      6       0.003943   0.001639  -0.000851  -0.005614  -0.015156  -0.088950
      7      -0.021246  -0.006369   0.002926   0.025052  -0.037146  -0.226585
      8       0.167116   0.060779  -0.027396  -0.213215   0.013536  -0.040933
      9       0.000017  -0.000624   0.000701   0.001987   0.071522   0.041156
     10       0.006673  -0.005479   0.001262   0.009368   0.051806  -0.157293
     11      -0.053768   0.040893  -0.005922  -0.051765   0.009811  -0.027300
     12       0.003298   0.005271   0.001453   0.006748   0.133608   0.344538
     13      -0.005738  -0.050876   0.002621  -0.003086   0.016788  -0.301557
     14       0.043924   0.418729  -0.021128   0.036192  -0.001157  -0.039911
     15      -0.005551  -0.006580   0.001023   0.003224   0.054701  -0.016909
     16       0.040124   0.030487  -0.000845   0.001185   0.137351   0.170314
     17      -0.316974  -0.266391   0.020456   0.047721   0.010917   0.025835
     18       0.006809  -0.005655   0.001728  -0.001568  -0.039370   0.102129
     19      -0.034594   0.043439  -0.010689  -0.008195  -0.159914   0.233773
[...]
     27       0.283850   0.362953   0.022218  -0.754960  -0.068541  -0.030359
     28       0.114799   0.148702  -0.007908  -0.261035  -0.019228   0.010046
     29       0.006562   0.009338  -0.001726  -0.013173  -0.000601   0.002211
     30      -0.361746  -0.610229   0.356942  -0.412655  -0.045626  -0.082434
     31       0.156413   0.369988  -0.232576   0.202811   0.026218   0.057650
     32       0.027189   0.058496  -0.036233   0.033753   0.003942   0.008937
     33       0.035601  -0.040349  -0.019333   0.023981   0.012881   0.036977
     34      -0.586574   0.528667   0.845064   0.129942   0.016192  -0.062938
     35      -0.069637   0.063966   0.102780   0.015392   0.001799  -0.008628
     36       0.073383   0.031499   0.031165   0.045463  -0.620291  -0.046107
     37       0.069874   0.025331   0.023851  -0.003079  -0.190361   0.017188
     38       0.005913   0.001977   0.001331   0.000190  -0.014722   0.008297
     39      -0.029704  -0.010346  -0.014003   0.041355  -0.253301   0.383380
     40      -0.074974  -0.029768  -0.062400   0.110233  -0.451091  -0.206068
     41      -0.008086  -0.005550  -0.021835   0.015252   0.057734  -0.385100
     42      -0.032741  -0.011017  -0.015096   0.044129  -0.266810   0.403151
     43      -0.075850  -0.030310  -0.065990   0.110866  -0.424891  -0.294254
     44      -0.009732  -0.001458   0.006338   0.010698  -0.155769   0.310498
     45      -0.547269  -0.165844  -0.159593   0.231976   0.089404  -0.442093
     46      -0.104659  -0.032451  -0.034587   0.050575   0.021171  -0.121581
     47       0.004682   0.001274   0.000485  -0.001232  -0.000639  -0.001770
                 36         37         38         39         40         41    
      0      -0.002330   0.074836   0.288124   0.068026  -0.119398   0.009252
      1      -0.001263   0.077472  -0.512328   0.001181   0.260291  -0.036761
      2       0.000112   0.007742  -0.074478  -0.001616   0.037175  -0.005081
      3       0.000171  -0.006341  -0.045757  -0.591751  -0.155289   0.002378
      4       0.000523  -0.016767   0.035419  -0.017410  -0.031069   0.003139
      5      -0.000631  -0.001879   0.005580   0.011534  -0.000274   0.000342
      6       0.000319  -0.009202   0.011539   0.600709   0.110718   0.002206
      7      -0.000090   0.001326   0.004880  -0.101634  -0.009565  -0.002641
      8       0.000027   0.000466   0.000376  -0.025884  -0.003667  -0.000346
      9       0.000023  -0.005271   0.244879  -0.175555   0.624716   0.020872
     10      -0.000253   0.012130   0.001929  -0.005399   0.172731   0.025968
     11      -0.000067   0.001622  -0.004779   0.003095   0.008165   0.002692
     12      -0.000021   0.001942  -0.051488   0.019104  -0.057860   0.064353
     13       0.000150  -0.006561   0.006889   0.006598  -0.037738  -0.007423
     14       0.000167  -0.000876   0.001785   0.000394  -0.003470  -0.002161
     15      -0.000058   0.005564  -0.169662   0.057607  -0.417012  -0.013592
     16       0.000036  -0.000900  -0.019563   0.021049  -0.063114  -0.004978
     17       0.000032  -0.000149   0.001095   0.001367   0.000831  -0.000312
     18       0.000003   0.007130  -0.054960  -0.012133   0.040156  -0.007712
     19       0.000713  -0.053029   0.284486   0.014724  -0.139599   0.020801
     20       0.001247  -0.007136   0.038525   0.002172  -0.019234   0.002905
     21       0.003162  -0.118084  -0.213251   0.025767   0.101902  -0.008373
     22      -0.001153   0.003765   0.056674   0.013583  -0.024114   0.004946
     23       0.008328   0.003995   0.013222   0.001011  -0.006023   0.000906
     24       0.000953  -0.010593   0.031920  -0.011033  -0.014682   0.000189
     25      -0.008740   0.034684  -0.012416  -0.006038   0.001669   0.000690
     26       0.064073   0.005360  -0.002052  -0.000555   0.000477   0.000064
     27      -0.000432  -0.010073   0.245992   0.085421  -0.025988   0.001424
     28       0.000091  -0.016379   0.132511   0.270052   0.046914   0.001734
     29       0.000574  -0.001706   0.010442   0.030232   0.006227   0.000127
     30      -0.000944   0.033148   0.015114  -0.132520   0.219831   0.006319
     31       0.000624  -0.026277   0.015113   0.360963  -0.044543   0.001243
     32       0.001050  -0.003745   0.000974   0.046121  -0.010103  -0.000014
     33       0.000373  -0.031739   0.429768  -0.033478   0.094791  -0.990706
     34      -0.000341   0.009637   0.142346   0.059337  -0.402931  -0.102634
     35      -0.004528   0.001678   0.010571   0.007576  -0.049681   0.006651
     36      -0.008530  -0.329531  -0.014117  -0.003254  -0.007868   0.006713
     37       0.091417  -0.101479  -0.021523  -0.003716   0.001418   0.003949
     38      -0.739932  -0.022124  -0.006218   0.000051   0.001665   0.000172
     39      -0.004406   0.461643   0.176150   0.008705  -0.059608   0.002470
     40      -0.445355  -0.142058   0.164379  -0.003179  -0.058821   0.000273
     41      -0.125575  -0.382624  -0.066447  -0.012865   0.020161   0.000239
     42      -0.011638   0.488079   0.185023   0.009718  -0.062588   0.002470
     43       0.474142  -0.199495   0.152393  -0.006275  -0.055055   0.000366
     44      -0.025413   0.321516   0.097335   0.011564  -0.031458  -0.000276
     45      -0.006835   0.279538  -0.015926  -0.011632   0.010073  -0.011420
     46      -0.001771   0.086868   0.062546   0.002258  -0.030885   0.007475
     47      -0.001655   0.002429   0.010307   0.000832  -0.004938   0.001399
                 42         43         44         45         46         47    
      0       0.000088   0.001262  -0.000585   0.001757  -0.001271  -0.000284
      1       0.000034  -0.000630   0.000669  -0.002336   0.000105   0.003123
      2      -0.000755  -0.000064   0.000092  -0.000341   0.000047   0.000408
      3      -0.000020  -0.000332  -0.006930   0.028808  -0.013480   0.000303
      4       0.000010   0.000335   0.015602  -0.065821   0.029355   0.000212
      5       0.000061   0.000043   0.002073  -0.008730   0.003905   0.000018
      6       0.000006   0.000043  -0.003149   0.015009   0.041952  -0.000054
      7      -0.000003  -0.000034  -0.004727   0.022421   0.063534  -0.000078
      8       0.000019  -0.000011  -0.000506   0.002396   0.006811  -0.000012
      9       0.000006   0.000075  -0.000026   0.000081   0.002263  -0.000198
     10      -0.000007  -0.000080  -0.000296   0.001422   0.001759   0.000310
     11      -0.000010  -0.000014  -0.000036   0.000172   0.000166   0.000040
     12      -0.000012  -0.000138  -0.000010  -0.000091  -0.000014   0.000198
     13       0.000002   0.000029   0.000002  -0.000094  -0.000018  -0.000129
     14       0.000007   0.000006   0.000001  -0.000008  -0.000003  -0.000016
     15      -0.000003  -0.000033  -0.000038   0.000175  -0.000635   0.000109
     16      -0.000000   0.000006   0.000014  -0.000081  -0.000175  -0.000037
     17       0.000004  -0.000004   0.000002  -0.000014  -0.000008  -0.000009
     18       0.000008   0.000113   0.000189  -0.000244   0.000058   0.000528
     19       0.000003   0.000075  -0.000083   0.000292  -0.000005  -0.001502
     20       0.000096   0.000003  -0.000015   0.000046  -0.000002  -0.000204
     21      -0.000393  -0.004448  -0.000552  -0.000333   0.000317  -0.013864
     22       0.000028  -0.000818  -0.001004   0.000516  -0.000144   0.068526
     23      -0.000807   0.000094  -0.000111   0.000075  -0.000027   0.009059
     24      -0.006118  -0.055321   0.026400   0.005861  -0.000141  -0.000419
     25       0.012127   0.015821  -0.069880  -0.016315   0.000482   0.001893
     26      -0.087950   0.009379  -0.009392  -0.002177   0.000063   0.000250
     27       0.000113   0.002016   0.082535  -0.345912   0.138319   0.000967
     28      -0.000263  -0.004813  -0.196603   0.824325  -0.335245  -0.004655
     29      -0.000068  -0.000636  -0.026008   0.109039  -0.044281  -0.000603
     30       0.000016   0.000485   0.040725  -0.189264  -0.481958   0.000703
     31       0.000045   0.000766   0.065344  -0.305248  -0.787384   0.000212
     32      -0.000123   0.000085   0.007054  -0.032995  -0.085236   0.000004
     33       0.000233   0.002804   0.000811  -0.000686  -0.003519  -0.005073
     34      -0.000004  -0.000267   0.000281   0.000458  -0.001286   0.000941
     35      -0.000164  -0.000078   0.000028   0.000078  -0.000099   0.000233
     36      -0.001818  -0.031433  -0.312746  -0.073556   0.002231   0.005246
     37       0.003772   0.042852   0.910032   0.214992  -0.007686  -0.017711
     38      -0.042234   0.008631   0.116225   0.027455  -0.000970  -0.002243
     39       0.444365   0.353525   0.002708   0.002807  -0.000443  -0.002360
     40      -0.206996  -0.164777  -0.021312  -0.005826   0.000326   0.000743
     41       0.571208   0.525890  -0.021843  -0.002178  -0.000491  -0.002498
     42      -0.365340   0.382413   0.000048   0.002114  -0.000386  -0.002152
     43       0.058719  -0.042706  -0.025197  -0.006009   0.000191   0.000318
     44       0.535506  -0.645649   0.021223   0.001720   0.000539   0.002542
     45      -0.000057  -0.000379   0.004179  -0.002202   0.001349   0.189816
     46      -0.000634  -0.005073  -0.018895  -0.009275   0.001424  -0.970651
     47       0.001561  -0.000849  -0.002393  -0.001106   0.000151  -0.128059


-----------
IR SPECTRUM  
-----------

 Mode    freq (cm**-1)   T**2         TX         TY         TZ
-------------------------------------------------------------------
   6:        26.80    0.000000  (  0.000000   0.000000   0.000000)
   7:        85.95    0.000000  (  0.000000   0.000000   0.000000)
   8:       109.07    0.000000  (  0.000000   0.000000   0.000000)
   9:       163.28    0.000000  (  0.000000   0.000000   0.000000)
  10:       179.43    0.000000  (  0.000000   0.000000   0.000000)
  11:       291.63    0.000000  (  0.000000   0.000000   0.000000)
  12:       301.61    0.000000  (  0.000000   0.000000   0.000000)
  13:       347.92    0.000000  (  0.000000   0.000000   0.000000)
  14:       388.08    0.000000  (  0.000000   0.000000   0.000000)
  15:       515.51    0.000000  (  0.000000   0.000000   0.000000)
  16:       580.70    0.000000  (  0.000000   0.000000   0.000000)
  17:       586.41    0.000000  (  0.000000   0.000000   0.000000)
  18:       621.38    0.000000  (  0.000000   0.000000   0.000000)
  19:       717.99    0.000000  (  0.000000   0.000000   0.000000)
  20:       753.83    0.000000  (  0.000000   0.000000   0.000000)
  21:       831.90    0.000000  (  0.000000   0.000000   0.000000)
  22:       871.10    0.000000  (  0.000000   0.000000   0.000000)
  23:       932.00    0.000000  (  0.000000   0.000000   0.000000)
  24:       941.24    0.000000  (  0.000000   0.000000   0.000000)
  25:       947.76    0.000000  (  0.000000   0.000000   0.000000)
  26:      1072.81    0.000000  (  0.000000   0.000000   0.000000)
  27:      1099.90    0.000000  (  0.000000   0.000000   0.000000)
  28:      1118.57    0.000000  (  0.000000   0.000000   0.000000)
  29:      1194.22    0.000000  (  0.000000   0.000000   0.000000)
  30:      1219.35    0.000000  (  0.000000   0.000000   0.000000)
  31:      1262.62    0.000000  (  0.000000   0.000000   0.000000)
  32:      1306.58    0.000000  (  0.000000   0.000000   0.000000)
  33:      1353.12    0.000000  (  0.000000   0.000000   0.000000)
  34:      1394.68    0.000000  (  0.000000   0.000000   0.000000)
  35:      1423.79    0.000000  (  0.000000   0.000000   0.000000)
  36:      1449.12    0.000000  (  0.000000   0.000000   0.000000)
  37:      1465.74    0.000000  (  0.000000   0.000000   0.000000)
  38:      1597.11    0.000000  (  0.000000   0.000000   0.000000)
  39:      1652.92    0.000000  (  0.000000   0.000000   0.000000)
  40:      1662.95    0.000000  (  0.000000   0.000000   0.000000)
  41:      2303.95    0.000000  (  0.000000   0.000000   0.000000)
  42:      3001.39    0.000000  (  0.000000   0.000000   0.000000)
  43:      3012.59    0.000000  (  0.000000   0.000000   0.000000)
  44:      3048.14    0.000000  (  0.000000   0.000000   0.000000)
  45:      3049.84    0.000000  (  0.000000   0.000000   0.000000)
  46:      3070.26    0.000000  (  0.000000   0.000000   0.000000)
  47:      3427.02    0.000000  (  0.000000   0.000000   0.000000)

The first frequency considered to be a vibration is 6
The total number of vibrations considered is 42


--------------------------
THERMOCHEMISTRY AT 298.15K
--------------------------

Temperature         ... 298.15 K
Pressure            ... 1.00 atm
Total Mass          ... 129.11 AMU

Throughout the following assumptions are being made:
  (1) The electronic state is orbitally nondegenerate
  (2) There are no thermally accessible electronically excited states
  (3) Hindered rotations indicated by low frequency modes are not
      treated as such but are treated as vibrations and this may
      cause some error
  (4) All equations used are the standard statistical mechanics
      equations for an ideal gas
  (5) All vibrations are strictly harmonic

freq.      26.80  E(vib)   ...       0.56 
freq.      85.95  E(vib)   ...       0.48 
freq.     109.07  E(vib)   ...       0.45 
freq.     163.28  E(vib)   ...       0.39 
freq.     179.43  E(vib)   ...       0.37 
freq.     291.63  E(vib)   ...       0.27 
freq.     301.61  E(vib)   ...       0.26 
freq.     347.92  E(vib)   ...       0.23 
freq.     388.08  E(vib)   ...       0.20 
freq.     515.51  E(vib)   ...       0.13 
freq.     580.70  E(vib)   ...       0.11 
freq.     586.41  E(vib)   ...       0.11 
freq.     621.38  E(vib)   ...       0.09 
freq.     717.99  E(vib)   ...       0.07 
freq.     753.83  E(vib)   ...       0.06 
freq.     831.90  E(vib)   ...       0.04 
freq.     871.10  E(vib)   ...       0.04 
freq.     932.00  E(vib)   ...       0.03 
freq.     941.24  E(vib)   ...       0.03 
freq.     947.76  E(vib)   ...       0.03 
freq.    1072.81  E(vib)   ...       0.02 
freq.    1099.90  E(vib)   ...       0.02 
freq.    1118.57  E(vib)   ...       0.01 
freq.    1194.22  E(vib)   ...       0.01 
freq.    1219.35  E(vib)   ...       0.01 
freq.    1262.62  E(vib)   ...       0.01 
freq.    1306.58  E(vib)   ...       0.01 
freq.    1353.12  E(vib)   ...       0.01 
freq.    1394.68  E(vib)   ...       0.00 
freq.    1423.79  E(vib)   ...       0.00 
freq.    1449.12  E(vib)   ...       0.00 
freq.    1465.74  E(vib)   ...       0.00 
freq.    1597.11  E(vib)   ...       0.00 
freq.    1652.92  E(vib)   ...       0.00 
freq.    1662.95  E(vib)   ...       0.00 
freq.    2303.95  E(vib)   ...       0.00 
freq.    3001.39  E(vib)   ...       0.00 
freq.    3012.59  E(vib)   ...       0.00 
freq.    3048.14  E(vib)   ...       0.00 
freq.    3049.84  E(vib)   ...       0.00 
freq.    3070.26  E(vib)   ...       0.00 
freq.    3427.02  E(vib)   ...       0.00 

------------
INNER ENERGY
------------

The inner energy is: U= E(el) + E(ZPE) + E(vib) + E(rot) + E(trans)
    E(el)   - is the total energy from the electronic structure calculation
              = E(kin-el) + E(nuc-el) + E(el-el) + E(nuc-nuc)
    E(ZPE)  - the the zero temperature vibrational energy from the frequency calculation
    E(vib)  - the the finite temperature correction to E(ZPE) due to population
              of excited vibrational states
    E(rot)  - is the rotational thermal energy
    E(trans)- is the translational thermal energy

Summary of contributions to the inner energy U:
Electronic energy                ...    -29.39889180 Eh
Zero point energy                ...      0.11705288 Eh      73.45 kcal/mol
Thermal vibrational correction   ...      0.00645521 Eh       4.05 kcal/mol
Thermal rotational correction    ...      0.00141627 Eh       0.89 kcal/mol
Thermal translational correction ...      0.00141627 Eh       0.89 kcal/mol
-----------------------------------------------------------------------
Total thermal energy                    -29.27255118 Eh


Summary of corrections to the electronic energy:
(perhaps to be used in another calculation)
Total thermal correction                  0.00928775 Eh       5.83 kcal/mol
Non-thermal (ZPE) correction              0.11705288 Eh      73.45 kcal/mol
-----------------------------------------------------------------------
Total correction                          0.12634063 Eh      79.28 kcal/mol


--------
ENTHALPY
--------

The enthalpy is H = U + kB*T
                kB is Boltzmann's constant
Total free energy                 ...    -29.27255118 Eh 
Thermal Enthalpy correction       ...      0.00094421 Eh       0.59 kcal/mol
-----------------------------------------------------------------------
Total Enthalpy                    ...    -29.27160697 Eh


Note: Only C1 symmetry has been detected, increase convergence thresholds 
      if your molecule has a higher symmetry. Symmetry factor of 1.0 is   
      used for the rotational entropy correction. 
 

Note: Rotational entropy computed according to Herzberg 
Infrared and Raman Spectra, Chapter V,1, Van Nostrand Reinhold, 1945 
Point Group:  C1, Symmetry Number:   1  
Rotational constants in cm-1:     0.168297     0.027582     0.023805 

Vibrational entropy computed according to the QRRHO of S. Grimme
Chem.Eur.J. 2012 18 9955


-------
ENTROPY
-------

The entropy contributions are T*S = T*(S(el)+S(vib)+S(rot)+S(trans))
     S(el)   - electronic entropy
     S(vib)  - vibrational entropy
     S(rot)  - rotational entropy
     S(trans)- translational entropy
The entropies will be listed as mutliplied by the temperature to get
units of energy

Electronic entropy                ...      0.00000000 Eh      0.00 kcal/mol
Vibrational entropy               ...      0.01143425 Eh      7.18 kcal/mol
Rotational entropy                ...      0.01381177 Eh      8.67 kcal/mol
Translational entropy             ...      0.01923315 Eh     12.07 kcal/mol
-----------------------------------------------------------------------
Final entropy term                ...      0.04447916 Eh     27.91 kcal/mol

In case the symmetry of your molecule has not been determined correctly
or in case you have a reason to use a different symmetry number we print 
out the resulting rotational entropy values for sn=1,12 :
 --------------------------------------------------------
|  sn= 1 | S(rot)=       0.01381177 Eh      8.67 kcal/mol|
|  sn= 2 | S(rot)=       0.01315731 Eh      8.26 kcal/mol|
|  sn= 3 | S(rot)=       0.01277448 Eh      8.02 kcal/mol|
|  sn= 4 | S(rot)=       0.01250285 Eh      7.85 kcal/mol|
|  sn= 5 | S(rot)=       0.01229217 Eh      7.71 kcal/mol|
|  sn= 6 | S(rot)=       0.01212002 Eh      7.61 kcal/mol|
|  sn= 7 | S(rot)=       0.01197447 Eh      7.51 kcal/mol|
|  sn= 8 | S(rot)=       0.01184840 Eh      7.43 kcal/mol|
|  sn= 9 | S(rot)=       0.01173719 Eh      7.37 kcal/mol|
|  sn=10 | S(rot)=       0.01163771 Eh      7.30 kcal/mol|
|  sn=11 | S(rot)=       0.01154772 Eh      7.25 kcal/mol|
|  sn=12 | S(rot)=       0.01146556 Eh      7.19 kcal/mol|
 --------------------------------------------------------


-------------------
GIBBS FREE ENERGY
-------------------

The Gibbs free energy is G = H - T*S

Total enthalpy                    ...    -29.27160697 Eh 
Total entropy correction          ...     -0.04447916 Eh    -27.91 kcal/mol
-----------------------------------------------------------------------
Final Gibbs free energy         ...    -29.31608613 Eh

For completeness - the Gibbs free energy minus the electronic energy
G-E(el)                           ...      0.08280568 Eh     51.96 kcal/mol


Total Time for Numerical Frequencies  :        41.887 sec

Timings for individual modules:

Sum of individual times         ...        0.222 sec (=   0.004 min)
Geometry relaxation             ...        0.073 sec (=   0.001 min)  32.8 %
XTB module                      ...        0.149 sec (=   0.002 min)  67.2 %
                             ****ORCA TERMINATED NORMALLY****
TOTAL RUN TIME: 0 days 0 hours 0 minutes 42 seconds 599 msec
