
                                 *****************
                                 * O   R   C   A *
                                 *****************

           --- An Ab Initio, DFT and Semiempirical electronic structure package ---

                  #######################################################
                  #                        -***-                        #
                  #          Department of theory and spectroscopy      #
                  #               Directorship: Frank Neese             #
                  #        Max Planck Institute fuer Kohlenforschung    #
                  #                Kaiser Wilhelm Platz 1               #
                  #                 D-45470 Muelheim/Ruhr               #
                  #                      Germany                        #
                  #                                                     #
                  #                  All rights reserved                #
                  #                        -***-                        #
                  #######################################################


                         Program Version 4.2.1 -  RELEASE  -


 With contributions from (in alphabetic order):
   Daniel Aravena         : Magnetic Suceptibility
   Michael Atanasov       : Ab Initio Ligand Field Theory (pilot matlab implementation)
   Alexander A. Auer      : GIAO ZORA, VPT2
   Ute Becker             : Parallelization
   Giovanni Bistoni       : ED, misc. LED, open-shell LED, HFLD
   Martin Brehm           : Molecular dynamics
   Dmytro Bykov           : SCF Hessian
   Vijay G. Chilkuri      : MRCI spin determinant printing, contributions to CSF-ICE
   Dipayan Datta          : RHF DLPNO-CCSD density
   Achintya Kumar Dutta   : EOM-CC, STEOM-CC
   Dmitry Ganyushin       : Spin-Orbit,Spin-Spin,Magnetic field MRCI
   Miquel Garcia          : C-PCM Hessian, Gaussian charge scheme
   Yang Guo               : DLPNO-NEVPT2, CIM, IAO-localization
   Andreas Hansen         : Spin unrestricted coupled pair/coupled cluster methods
   Benjamin Helmich-Paris : CASSCF linear response (MC-RPA)
   Lee Huntington         : MR-EOM, pCC
   Robert Izsak           : Overlap fitted RIJCOSX, COSX-SCS-MP3, EOM
   Christian Kollmar      : KDIIS, OOCD, Brueckner-CCSD(T), CCSD density
   Simone Kossmann        : Meta GGA functionals, TD-DFT gradient, OOMP2, MP2 Hessian
   Martin Krupicka        : AUTO-CI
   Lucas Lang             : DCDCAS
   Dagmar Lenk            : GEPOL surface, SMD
   Dimitrios Liakos       : Extrapolation schemes; Compound Job, initial MDCI parallelization
   Dimitrios Manganas     : Further ROCIS development; embedding schemes
   Dimitrios Pantazis     : SARC Basis sets
   Taras Petrenko         : DFT Hessian,TD-DFT gradient, ASA, ECA, R-Raman, ABS, FL, XAS/XES, NRVS
   Peter Pinski           : DLPNO-MP2, DLPNO-MP2 Gradient
   Christoph Reimann      : Effective Core Potentials
   Marius Retegan         : Local ZFS, SOC
   Christoph Riplinger    : Optimizer, TS searches, QM/MM, DLPNO-CCSD(T), (RO)-DLPNO pert. Triples
   Tobias Risthaus        : Range-separated hybrids, TD-DFT gradient, RPA, STAB
   Michael Roemelt        : Original ROCIS implementation
   Masaaki Saitow         : Open-shell DLPNO-CCSD energy and density
   Barbara Sandhoefer     : DKH picture change effects
   Avijit Sen             : IP-ROCIS
   Kantharuban Sivalingam : CASSCF convergence, NEVPT2, FIC-MRCI
   Bernardo de Souza      : ESD, SOC TD-DFT
   Georgi Stoychev        : AutoAux, RI-MP2 NMR
   Willem Van den Heuvel  : Paramagnetic NMR
   Boris Wezisla          : Elementary symmetry handling
   Frank Wennmohs         : Technical directorship


 We gratefully acknowledge several colleagues who have allowed us to
 interface, adapt or use parts of their codes:
   Stefan Grimme, W. Hujo, H. Kruse,             : VdW corrections, initial TS optimization,
                  C. Bannwarth                     DFT functionals, gCP, sTDA/sTD-DF
   Ed Valeev, F. Pavosevic, A. Kumar             : LibInt (2-el integral package), F12 methods
   Garnet Chan, S. Sharma, J. Yang, R. Olivares  : DMRG
   Ulf Ekstrom                                   : XCFun DFT Library
   Mihaly Kallay                                 : mrcc  (arbitrary order and MRCC methods)
   Andreas Klamt, Michael Diedenhofen            : otool_cosmo (COSMO solvation model)
   Jiri Pittner, Ondrej Demel                    : Mk-CCSD
   Frank Weinhold                                : gennbo (NPA and NBO analysis)
   Christopher J. Cramer and Donald G. Truhlar   : smd solvation model
   Lars Goerigk                                  : TD-DFT with DH, B97 family of functionals
   V. Asgeirsson, H. Jonsson                     : NEB implementation
   FAccTs GmbH                                   : IRC, NEB, NEB-TS, Multilevel, MM, QM/MM, CI optimization
   S Lehtola, MJT Oliveira, MAL Marques          : LibXC Library


 Your calculation uses the libint2 library for the computation of 2-el integrals
 For citations please refer to: http://libint.valeyev.net

 Your ORCA version has been built with support for libXC version: 4.2.3
 For citations please refer to: https://tddft.org/programs/libxc/

 This ORCA versions uses:
   CBLAS   interface :  Fast vector & matrix operations
   LAPACKE interface :  Fast linear algebra routines
   SCALAPACK package :  Parallel linear algebra routines




***************************************
The coordinates will be read from file: init.xyz
***************************************


Your calculation utilizes the geometrical counterpoise correction gCP
Please cite in your paper:
H.Kruse, S. Grimme J.Chem.Phys., 136, (2012), 154101 
   

Your calculation utilizes the atom-pairwise dispersion correction
based on tight binding partial charges (D4)
Cite in your paper:
E.Caldeweyher, C.Bannwarth, S.Grimme, J.Chem.Phys., (2017), 147, 034112.
E.Caldeweyher, S.Ehlert, A.Hansen, H.Neugebauer, S.Grimme, J.Chem.Phys., (2018), in progress.
   

----- Orbital basis set information -----
Your calculation utilizes the basis: def2-SVP
   F. Weigend and R. Ahlrichs, Phys. Chem. Chem. Phys. 7, 3297 (2005).

----- AuxJ basis set information -----
Your calculation utilizes the auxiliary basis: def2/J
   F. Weigend, Phys. Chem. Chem. Phys. 8, 1057 (2006).

================================================================================
                                        WARNINGS
                       Please study these warnings very carefully!
================================================================================


WARNING: Geometry Optimization
  ===> : Switching off AutoStart
         For restart on a previous wavefunction, please use MOREAD

INFO   : the flag for use of LIBINT has been found!

================================================================================
                                       INPUT FILE
================================================================================
NAME = opt.inp
|  1> ! revPBE D4 gCP(DFT/TZ) def2-SVP Opt Freq TightOpt TightSCF Grid4 FinalGrid5 LargePrint
|  2> 
|  3> %pal
|  4>  nprocs 8
|  5> end
|  6> 
|  7> *xyzfile 0 1 init.xyz
|  8> 
|  9>                          ****END OF INPUT****
================================================================================

                       *****************************
                       * Geometry Optimization Run *
                       *****************************

Geometry optimization settings:
Update method            Update   .... BFGS
Choice of coordinates    CoordSys .... Z-matrix Internals
Initial Hessian          InHess   .... Almoef's Model

Convergence Tolerances:
Energy Change            TolE     ....  1.0000e-06 Eh
Max. Gradient            TolMAXG  ....  1.0000e-04 Eh/bohr
RMS Gradient             TolRMSG  ....  3.0000e-05 Eh/bohr
Max. Displacement        TolMAXD  ....  1.0000e-03 bohr
RMS Displacement         TolRMSD  ....  6.0000e-04 bohr
Strict Convergence                ....  False
------------------------------------------------------------------------------
                        ORCA OPTIMIZATION COORDINATE SETUP
------------------------------------------------------------------------------

The optimization will be done in new redundant internal coordinates
Making redundant internal coordinates   ...  (new redundants) done
Evaluating the initial hessian          ...  (Almloef) done
Evaluating the coordinates              ...  done
Calculating the B-matrix                .... done
Calculating the G-matrix                .... done
Diagonalizing the G-matrix              .... done
Small eigenvalue found = 2.300e-02
The first mode is                       ....   37
The number of degrees of freedom        ....   45

    -----------------------------------------------------------------
                    Redundant Internal Coordinates


    -----------------------------------------------------------------
         Definition                    Initial Value    Approx d2E/dq
    -----------------------------------------------------------------
      1. B(C   1,C   0)                  1.5260         0.379172   
      2. B(H   2,C   0)                  1.1104         0.334114   
      3. B(H   3,C   0)                  1.1109         0.333494   
      4. B(H   4,C   0)                  1.1109         0.333481   
      5. B(C   5,C   1)                  1.5330         0.369532   
      6. B(H   6,C   1)                  1.1119         0.332214   
      7. B(H   7,C   1)                  1.1119         0.332215   
      8. B(C   8,C   5)                  1.5330         0.369525   
      9. B(H   9,C   5)                  1.1125         0.331473   
     10. B(H  10,C   5)                  1.1126         0.331468   
     11. B(C  11,C   8)                  1.5259         0.379185   
     12. B(H  12,C   8)                  1.1119         0.332221   
     13. B(H  13,C   8)                  1.1119         0.332213   
     14. B(H  14,C  11)                  1.1109         0.333479   
     15. B(H  15,C  11)                  1.1104         0.334104   
     16. B(H  16,C  11)                  1.1109         0.333485   
     17. A(H   3,C   0,H   4)          109.1892         0.283945   
     18. A(C   1,C   0,H   4)          110.3411         0.321044   
     19. A(C   1,C   0,H   2)          109.5889         0.321143   
     20. A(H   2,C   0,H   4)          108.6703         0.284027   
     21. A(H   2,C   0,H   3)          108.6702         0.284029   
     22. A(C   1,C   0,H   3)          110.3413         0.321046   
     23. A(C   0,C   1,C   5)          111.1692         0.363599   
     24. A(H   6,C   1,H   7)          108.7172         0.283608   
     25. A(C   5,C   1,H   7)          109.6421         0.319496   
     26. A(C   0,C   1,H   7)          108.8126         0.320844   
     27. A(C   5,C   1,H   6)          109.6417         0.319496   
     28. A(C   0,C   1,H   6)          108.8128         0.320844   
     29. A(C   1,C   5,H   9)          109.2638         0.319380   
     30. A(C   1,C   5,C   8)          110.9820         0.362002   
     31. A(C   8,C   5,H   9)          109.2635         0.319379   
     32. A(H   9,C   5,H  10)          108.7698         0.283410   
     33. A(C   8,C   5,H  10)          109.2635         0.319378   
     34. A(C   1,C   5,H  10)          109.2636         0.319379   
     35. A(H  12,C   8,H  13)          108.7168         0.283609   
     36. A(C  11,C   8,H  13)          108.8125         0.320845   
     37. A(C   5,C   8,H  13)          109.6418         0.319495   
     38. A(C  11,C   8,H  12)          108.8132         0.320847   
     39. A(C   5,C   8,H  12)          109.6421         0.319497   
     40. A(C   5,C   8,C  11)          111.1693         0.363600   
     41. A(H  15,C  11,H  16)          108.6703         0.284026   
     42. A(H  14,C  11,H  16)          109.1885         0.283943   
     43. A(C   8,C  11,H  16)          110.3421         0.321046   
     44. A(H  14,C  11,H  15)          108.6693         0.284025   
     45. A(C   8,C  11,H  15)          109.5893         0.321143   
     46. A(C   8,C  11,H  14)          110.3414         0.321045   
     47. D(H   6,C   1,C   0,H   4)    178.7784         0.011461   
     48. D(H   7,C   1,C   0,H   4)     60.4712         0.011461   
     49. D(H   7,C   1,C   0,H   3)   -178.7781         0.011461   
     50. D(H   6,C   1,C   0,H   2)     59.1538         0.011461   
     51. D(C   5,C   1,C   0,H   4)    -60.3754         0.011461   
     52. D(H   6,C   1,C   0,H   3)    -60.4709         0.011461   
     53. D(C   5,C   1,C   0,H   3)     60.3753         0.011461   
     54. D(C   5,C   1,C   0,H   2)    180.0000         0.011461   
     55. D(H   7,C   1,C   0,H   2)    -59.1535         0.011461   
     56. D(H   9,C   5,C   1,H   6)    179.8050         0.010918   
     57. D(C   8,C   5,C   1,H   7)     59.6428         0.010918   
     58. D(C   8,C   5,C   1,H   6)    -59.6425         0.010918   
     59. D(C   8,C   5,C   1,C   0)   -179.9998         0.010918   
     60. D(H   9,C   5,C   1,H   7)    -60.9098         0.010918   
     61. D(H  10,C   5,C   1,H   7)   -179.8048         0.010918   
     62. D(H  10,C   5,C   1,H   6)     60.9100         0.010918   
     63. D(H  10,C   5,C   1,C   0)    -59.4474         0.010918   
     64. D(H   9,C   5,C   1,C   0)     59.4476         0.010918   
     65. D(H  13,C   8,C   5,H   9)     60.9100         0.010917   
     66. D(H  13,C   8,C   5,C   1)    -59.6427         0.010917   
     67. D(H  12,C   8,C   5,H  10)    -60.9104         0.010917   
     68. D(H  12,C   8,C   5,H   9)   -179.8052         0.010917   
     69. D(H  12,C   8,C   5,C   1)     59.6421         0.010917   
     70. D(C  11,C   8,C   5,H  10)     59.4478         0.010917   
     71. D(C  11,C   8,C   5,H   9)    -59.4471         0.010917   
     72. D(H  13,C   8,C   5,H  10)    179.8048         0.010917   
     73. D(C  11,C   8,C   5,C   1)   -179.9998         0.010917   
     74. D(H  15,C  11,C   8,C   5)   -179.9997         0.011462   
     75. D(H  14,C  11,C   8,H  13)    178.7781         0.011462   
     76. D(H  14,C  11,C   8,H  12)     60.4712         0.011462   
     77. D(H  14,C  11,C   8,C   5)    -60.3758         0.011462   
     78. D(H  16,C  11,C   8,H  13)    -60.4713         0.011462   
     79. D(H  16,C  11,C   8,H  12)   -178.7783         0.011462   
     80. D(H  16,C  11,C   8,C   5)     60.3748         0.011462   
     81. D(H  15,C  11,C   8,H  13)     59.1542         0.011462   
     82. D(H  15,C  11,C   8,H  12)    -59.1527         0.011462   
    -----------------------------------------------------------------

Number of atoms                         .... 17
Number of degrees of freedom            .... 82

         *************************************************************
         *                GEOMETRY OPTIMIZATION CYCLE   1            *
         *************************************************************
---------------------------------
CARTESIAN COORDINATES (ANGSTROEM)
---------------------------------
  C      4.894650    0.316910   -0.524190
  C      3.474820    0.462940    0.015520
  H      5.583640    0.961360    0.061420
  H      4.936550    0.627770   -1.589880
  H      5.234110   -0.737320   -0.437730
  C      2.491570   -0.413400   -0.768840
  H      3.169440    1.529270   -0.062550
  H      3.466410    0.166920    1.087300
  C      1.066860   -0.263440   -0.223220
  H      2.804840   -1.477980   -0.689490
  H      2.507620   -0.114430   -1.840350
  C      0.084380   -1.134150   -1.001100
  H      0.745950    0.798200   -0.302820
  H      1.042910   -0.564150    0.847020
  H      0.071740   -0.839740   -2.072210
  H     -0.937090   -1.005670   -0.585080
  H      0.369300   -2.204830   -0.920060

----------------------------
CARTESIAN COORDINATES (A.U.)
----------------------------
  NO LB      ZA    FRAG     MASS         X           Y           Z
   0 C     6.0000    0    12.011    9.249548    0.598873   -0.990576
   1 C     6.0000    0    12.011    6.566458    0.874830    0.029329
   2 H     1.0000    0     1.008   10.551550    1.816707    0.116067
   3 H     1.0000    0     1.008    9.328728    1.186313   -3.004438
   4 H     1.0000    0     1.008    9.891034   -1.393333   -0.827190
   5 C     6.0000    0    12.011    4.708385   -0.781213   -1.452897
   6 H     1.0000    0     1.008    5.989374    2.889901   -0.118202
   7 H     1.0000    0     1.008    6.550566    0.315433    2.054699
   8 C     6.0000    0    12.011    2.016073   -0.497829   -0.421825
   9 H     1.0000    0     1.008    5.300379   -2.792977   -1.302947
  10 H     1.0000    0     1.008    4.738715   -0.216241   -3.477757
  11 C     6.0000    0    12.011    0.159455   -2.143233   -1.891805
  12 H     1.0000    0     1.008    1.409641    1.508379   -0.572247
  13 H     1.0000    0     1.008    1.970814   -1.066089    1.600636
  14 H     1.0000    0     1.008    0.135569   -1.586879   -3.915909
  15 H     1.0000    0     1.008   -1.770843   -1.900441   -1.105641
  16 H     1.0000    0     1.008    0.697876   -4.166525   -1.738661

--------------------------------
INTERNAL COORDINATES (ANGSTROEM)
--------------------------------
 C      0   0   0     0.000000000000     0.00000000     0.00000000
 C      1   0   0     1.525951792784     0.00000000     0.00000000
 H      1   2   0     1.110388263041   109.58891877     0.00000000
 H      1   2   3     1.110893660842   110.34125334   240.37536083
 H      1   2   3     1.110904728633   110.34110772   119.62466321
 C      2   1   3     1.532962154686   111.16919364   179.99997394
 H      2   1   3     1.111940438243   108.81279683    59.15377377
 H      2   1   3     1.111940167860   108.81261101   300.84651542
 C      6   2   1     1.532966982717   110.98198135   180.00016923
 H      6   2   1     1.112548916587   109.26375286    59.44760010
 H      6   2   1     1.112553074464   109.26356086   300.55260732
 C      9   6   2     1.525942380596   111.16930112   180.00021498
 H      9   6   2     1.111934745253   109.64206560    59.64206112
 H      9   6   2     1.111941439195   109.64179307   300.35728671
 H     12   9   6     1.110906679159   110.34143541   299.62422721
 H     12   9   6     1.110396646113   109.58929698   180.00032103
 H     12   9   6     1.110901683499   110.34211934    60.37479851

---------------------------
INTERNAL COORDINATES (A.U.)
---------------------------
 C      0   0   0     0.000000000000     0.00000000     0.00000000
 C      1   0   0     2.883630981927     0.00000000     0.00000000
 H      1   2   0     2.098329719469   109.58891877     0.00000000
 H      1   2   3     2.099284782901   110.34125334   240.37536083
 H      1   2   3     2.099305697995   110.34110772   119.62466321
 C      2   1   3     2.896878646023   111.16919364   179.99997394
 H      2   1   3     2.101262905512   108.81279683    59.15377377
 H      2   1   3     2.101262394561   108.81261101   300.84651542
 C      6   2   1     2.896887769678   110.98198135   180.00016923
 H      6   2   1     2.102412762941   109.26375286    59.44760010
 H      6   2   1     2.102420620190   109.26356086   300.55260732
 C      9   6   2     2.883613195471   111.16930112   180.00021498
 H      9   6   2     2.101252147319   109.64206560    59.64206112
 H      9   6   2     2.101264797038   109.64179307   300.35728671
 H     12   9   6     2.099309383954   110.34143541   299.62422721
 H     12   9   6     2.098345561179   109.58929698   180.00032103
 H     12   9   6     2.099299943524   110.34211934    60.37479851

---------------------
BASIS SET INFORMATION
---------------------
There are 2 groups of distinct atoms

 Group   1 Type C   : 7s4p1d contracted to 3s2p1d pattern {511/31/1}
 Group   2 Type H   : 4s1p contracted to 2s1p pattern {31/1}

Atom   0C    basis set group =>   1
Atom   1C    basis set group =>   1
Atom   2H    basis set group =>   2
Atom   3H    basis set group =>   2
Atom   4H    basis set group =>   2
Atom   5C    basis set group =>   1
Atom   6H    basis set group =>   2
Atom   7H    basis set group =>   2
Atom   8C    basis set group =>   1
Atom   9H    basis set group =>   2
Atom  10H    basis set group =>   2
Atom  11C    basis set group =>   1
Atom  12H    basis set group =>   2
Atom  13H    basis set group =>   2
Atom  14H    basis set group =>   2
Atom  15H    basis set group =>   2
Atom  16H    basis set group =>   2

-------------------------
BASIS SET IN INPUT FORMAT
-------------------------

 # Basis set for element : H 
 NewGTO H 
 S 3 
   1      13.0107010000      0.0334854848
   2       1.9622572000      0.2347218709
   3       0.4445379600      0.8137702853
 S 1 
   1       0.1219496200      1.0000000000
 P 1 
   1       0.8000000000      1.0000000000
  end;

 # Basis set for element : C 
 NewGTO C 
 S 5 
   1    1238.4016938000      0.0055173650
   2     186.2900499200      0.0410888285
   3      42.2511763460      0.1822538213
   4      11.6765579320      0.4682845944
   5       3.5930506482      0.4457581734
 S 1 
   1       0.4024514736      1.0000000000
 S 1 
   1       0.1309018267      1.0000000000
 P 3 
   1       9.4680970621      0.0568883320
   2       2.0103545142      0.3129405934
   3       0.5477100471      0.7606501651
 P 1 
   1       0.1526861379      1.0000000000
 D 1 
   1       0.8000000000      1.0000000000
  end;

---------------------------------
AUXILIARY/J BASIS SET INFORMATION
---------------------------------
There are 2 groups of distinct atoms

 Group   1 Type C   : 12s5p4d2f1g contracted to 6s4p3d1f1g pattern {711111/2111/211/2/1}
 Group   2 Type H   : 5s2p1d contracted to 3s1p1d pattern {311/2/1}

Atom   0C    basis set group =>   1
Atom   1C    basis set group =>   1
Atom   2H    basis set group =>   2
Atom   3H    basis set group =>   2
Atom   4H    basis set group =>   2
Atom   5C    basis set group =>   1
Atom   6H    basis set group =>   2
Atom   7H    basis set group =>   2
Atom   8C    basis set group =>   1
Atom   9H    basis set group =>   2
Atom  10H    basis set group =>   2
Atom  11C    basis set group =>   1
Atom  12H    basis set group =>   2
Atom  13H    basis set group =>   2
Atom  14H    basis set group =>   2
Atom  15H    basis set group =>   2
Atom  16H    basis set group =>   2

-------------------------------------
AUXILIARY/J BASIS SET IN INPUT FORMAT
-------------------------------------

 # Auxiliary/J basis set for element : H 
 NewAuxJGTO H 
 S 3 
   1      15.6752927000      0.1007184237
   2       3.6063578000      0.3404257499
   3       1.2080016000      0.6491996172
 S 1 
   1       0.4726794000      1.0000000000
 S 1 
   1       0.2018100000      1.0000000000
 P 2 
   1       2.0281365000      0.5596620919
   2       0.5358730000      0.5596620919
 D 1 
   1       2.2165124000      1.0000000000
  end;

 # Auxiliary/J basis set for element : C 
 NewAuxJGTO C 
 S 7 
   1    1861.0916331000      0.0134602335
   2     642.9939764000      0.0299160374
   3     235.1105725000      0.1008649584
   4      90.7028894000      0.2370970548
   5      36.7794552000      0.3924037254
   6      15.6046273000      0.3195862154
   7       6.8907294000      0.0530104441
 S 1 
   1       3.1478850000     -1.0000000000
 S 1 
   1       1.4777287000      1.0000000000
 S 1 
   1       0.7076466000      1.0000000000
 S 1 
   1       0.3430122000      1.0000000000
 S 1 
   1       0.1669453000      1.0000000000
 P 2 
   1      13.5472892000     -0.6769313712
   2       5.4669419000     -0.3779500978
 P 1 
   1       2.1751721000      1.0000000000
 P 1 
   1       0.8582194000      1.0000000000
 P 1 
   1       0.3376720000      1.0000000000
 D 2 
   1       5.9287253000     -0.3533329857
   2       1.9809209000     -0.7456525731
 D 1 
   1       0.8055417000     -1.0000000000
 D 1 
   1       0.3531244000     -1.0000000000
 F 2 
   1       1.6755626000      0.6311076882
   2       0.5997536000      0.4968166032
 G 1 
   1       1.0024600000     -1.0000000000
  end;



           ************************************************************
           *        Program running with 8 parallel MPI-processes     *
           *              working on a common directory               *
           ************************************************************
------------------------------------------------------------------------------
                           ORCA GTO INTEGRAL CALCULATION
                           -- RI-GTO INTEGRALS CHOSEN --
------------------------------------------------------------------------------

                         BASIS SET STATISTICS AND STARTUP INFO

Gaussian basis set:
 # of primitive gaussian shells          ...  120
 # of primitive gaussian functions       ...  204
 # of contracted shells                  ...   66
 # of contracted basis functions         ...  130
 Highest angular momentum                ...    2
 Maximum contraction depth               ...    5
Auxiliary gaussian basis set:
 # of primitive gaussian shells          ...  216
 # of primitive gaussian functions       ...  542
 # of contracted shells                  ...  135
 # of contracted aux-basis functions     ...  377
 Highest angular momentum                ...    4
 Maximum contraction depth               ...    7
Ratio of auxiliary to basis functions    ...  2.90
Integral package used                  ... LIBINT
 One Electron integrals                  ... done
 Ordering auxiliary basis shells         ... done
 Integral threshhold             Thresh  ...  2.500e-11
 Primitive cut-off               TCut    ...  2.500e-12
 Pre-screening matrix                    ... done
 Shell pair data                         ... 
 Ordering of the shell pairs             ... done (   0.000 sec) 2117 of 2211 pairs
 Determination of significant pairs      ... done (   0.000 sec)
 Creation of shell pair data             ... done (   0.000 sec)
 Storage of shell pair data              ... done (   0.008 sec)
 Shell pair data done in (   0.009 sec)
 Computing two index integrals           ... done
 Cholesky decomposition of the V-matrix  ... done


Timings:
 Total evaluation time                   ...   0.162 sec (  0.003 min)
 One electron matrix time                ...   0.016 sec (  0.000 min) =  9.6%
 Schwartz matrix evaluation time         ...   0.107 sec (  0.002 min) = 66.1%
 Two index repulsion integral time       ...   0.005 sec (  0.000 min) =  2.9%
 Cholesky decomposition of V             ...   0.007 sec (  0.000 min) =  4.6%
 Three index repulsion integral time     ...   0.000 sec (  0.000 min) =  0.0%



           ************************************************************
           *        Program running with 8 parallel MPI-processes     *
           *              working on a common directory               *
           ************************************************************
-------------------------------------------------------------------------------
                                 ORCA SCF
-------------------------------------------------------------------------------

------------
SCF SETTINGS
------------
Hamiltonian:
 Density Functional     Method          .... DFT(GTOs)
 Exchange Functional    Exchange        .... PBE
   PBE kappa parameter   XKappa         ....  1.245000
   PBE mue parameter    XMuePBE         ....  0.219520
 Correlation Functional Correlation     .... PBE
   PBE beta parameter  CBetaPBE         ....  0.066725
 LDA part of GGA corr.  LDAOpt          .... PW91-LDA
 Gradients option       PostSCFGGA      .... off
   Density functional embedding theory  .... OFF
   NL short-range parameter             ....  3.700000
 RI-approximation to the Coulomb term is turned on
   Number of auxiliary basis functions  .... 377


General Settings:
 Integral files         IntName         .... opt
 Hartree-Fock type      HFTyp           .... RHF
 Total Charge           Charge          ....    0
 Multiplicity           Mult            ....    1
 Number of Electrons    NEL             ....   42
 Basis Dimension        Dim             ....  130
 Nuclear Repulsion      ENuc            ....    184.7197173362 Eh

Convergence Acceleration:
 DIIS                   CNVDIIS         .... on
   Start iteration      DIISMaxIt       ....    12
   Startup error        DIISStart       ....  0.200000
   # of expansion vecs  DIISMaxEq       ....     5
   Bias factor          DIISBfac        ....   1.050
   Max. coefficient     DIISMaxC        ....  10.000
 Newton-Raphson         CNVNR           .... off
 SOSCF                  CNVSOSCF        .... on
   Start iteration      SOSCFMaxIt      ....   150
   Startup grad/error   SOSCFStart      ....  0.003300
 Level Shifting         CNVShift        .... on
   Level shift para.    LevelShift      ....    0.2500
   Turn off err/grad.   ShiftErr        ....    0.0010
 Zerner damping         CNVZerner       .... off
 Static damping         CNVDamp         .... on
   Fraction old density DampFac         ....    0.7000
   Max. Damping (<1)    DampMax         ....    0.9800
   Min. Damping (>=0)   DampMin         ....    0.0000
   Turn off err/grad.   DampErr         ....    0.1000
 Fernandez-Rico         CNVRico         .... off

SCF Procedure:
 Maximum # iterations   MaxIter         ....   125
 SCF integral mode      SCFMode         .... Direct
   Integral package                     .... LIBINT
 Reset frequency        DirectResetFreq ....    20
 Integral Threshold     Thresh          ....  2.500e-11 Eh
 Primitive CutOff       TCut            ....  2.500e-12 Eh

Convergence Tolerance:
 Convergence Check Mode ConvCheckMode   .... Total+1el-Energy
 Convergence forced     ConvForced      .... 0
 Energy Change          TolE            ....  1.000e-08 Eh
 1-El. energy change                    ....  1.000e-05 Eh
 Orbital Gradient       TolG            ....  1.000e-05
 Orbital Rotation angle TolX            ....  1.000e-05
 DIIS Error             TolErr          ....  5.000e-07


Diagonalization of the overlap matrix:
Smallest eigenvalue                        ... 1.441e-03
Time for diagonalization                   ...    0.006 sec
Threshold for overlap eigenvalues          ... 1.000e-08
Number of eigenvalues below threshold      ... 0
Time for construction of square roots      ...    0.003 sec
Total time needed                          ...    0.010 sec

-------------------
DFT GRID GENERATION
-------------------

General Integration Accuracy     IntAcc      ...  4.670
Radial Grid Type                 RadialGrid  ... Gauss-Chebyshev
Angular Grid (max. acc.)         AngularGrid ... Lebedev-302
Angular grid pruning method      GridPruning ... 3 (G Style)
Weight generation scheme         WeightScheme... Becke
Basis function cutoff            BFCut       ...    1.0000e-11
Integration weight cutoff        WCut        ...    1.0000e-14
Grids for H and He will be reduced by one unit

# of grid points (after initial pruning)     ...  71788 (   0.0 sec)
# of grid points (after weights+screening)   ...  65653 (   0.1 sec)
nearest neighbour list constructed           ...    0.0 sec
Grid point re-assignment to atoms done       ...    0.0 sec
Grid point division into batches done        ...    0.2 sec
Reduced shell lists constructed in    0.3 sec

Total number of grid points                  ...    65653
Total number of batches                      ...     1032
Average number of points per batch           ...       63
Average number of grid points per atom       ...     3862
Average number of shells per batch           ...    46.70 (70.76%)
Average number of basis functions per batch  ...    87.90 (67.62%)
Average number of large shells per batch     ...    38.28 (81.98%)
Average number of large basis fcns per batch ...    71.95 (81.85%)
Maximum spatial batch extension              ...  14.18, 16.32, 17.07 au
Average spatial batch extension              ...   0.26,  0.27,  0.27 au

Time for grid setup =    0.369 sec

------------------------------
INITIAL GUESS: MODEL POTENTIAL
------------------------------
Loading Hartree-Fock densities                     ... done
Calculating cut-offs                               ... done
Setting up the integral package                    ... done
Initializing the effective Hamiltonian             ... done
Starting the Coulomb interaction                   ... done (   0.0 sec)
Reading the grid                                   ... done
Mapping shells                                     ... done
Starting the XC term evaluation                    ... done (   0.1 sec)
  promolecular density results
     # of electrons  =     41.994024744
     EX              =    -29.279763048
     EC              =     -1.339991704
     EX+EC           =    -30.619754752
Transforming the Hamiltonian                       ... done (   0.0 sec)
Diagonalizing the Hamiltonian                      ... done (   0.0 sec)
Back transforming the eigenvectors                 ... done (   0.0 sec)
Now organizing SCF variables                       ... done
                      ------------------
                      INITIAL GUESS DONE (   0.6 sec)
                      ------------------
----------------------
INITIAL GUESS ORBITALS
----------------------
                      0         1         2         3         4         5   
                 -10.08120 -10.08119 -10.07641 -10.07641 -10.07587  -0.86741
                   2.00000   2.00000   2.00000   2.00000   2.00000   2.00000
                  --------  --------  --------  --------  --------  --------
  0C   1s         0.740659  0.653405 -0.002458 -0.003423  0.001050 -0.084257
  0C   2s         0.039604  0.034631  0.000859  0.001533 -0.000805  0.168400
  0C   3s        -0.033453 -0.030814 -0.005320 -0.013877  0.002386  0.047373
  0C   1pz       -0.000353 -0.000304  0.000344  0.000529  0.000032  0.013415
  0C   1px        0.000636  0.000720 -0.000899 -0.001235  0.000151 -0.047640
  0C   1py       -0.000159 -0.000100  0.000094  0.000177  0.000060  0.000937
  0C   2pz        0.000566 -0.000138 -0.000643 -0.001595 -0.001194  0.003212
  0C   2px        0.002615  0.001992  0.001872  0.004644 -0.000544 -0.021209
  0C   2py        0.001048  0.000317 -0.000134 -0.000334 -0.001126 -0.001914
  0C   1dz2       0.000202  0.000174 -0.000229 -0.000326 -0.000009 -0.002113
  0C   1dxz       0.000385  0.000339 -0.000497 -0.000779  0.000171 -0.002874
  0C   1dyz      -0.000011 -0.000020  0.000054  0.000088  0.000058  0.000190
  0C   1dx2y2    -0.000480 -0.000419  0.000579  0.000858 -0.000040  0.004559
  0C   1dxy       0.000120  0.000105 -0.000165 -0.000281  0.000144 -0.000423
  1C   1s        -0.002723 -0.002216 -0.541095 -0.825298  0.041596 -0.140113
  1C   2s        -0.001051 -0.001083 -0.029400 -0.044057  0.000326  0.285595
  1C   3s         0.002145  0.007262  0.030888  0.050241  0.011585  0.057488
  1C   1pz        0.000422  0.000343 -0.000609 -0.000756  0.000881 -0.035573
  1C   1px       -0.000985 -0.001095  0.000372  0.000261  0.000942 -0.011802
  1C   1py        0.000141  0.000051 -0.000433 -0.000581  0.000949 -0.032596
  1C   2pz        0.000577 -0.000611 -0.000601 -0.004116 -0.002115 -0.011285
  1C   2px        0.002600  0.002288 -0.001755  0.000861 -0.003443 -0.009390
  1C   2py        0.001054 -0.000017 -0.000889 -0.003286 -0.002536 -0.011573
  1C   1dz2       0.000345  0.000311 -0.000281 -0.000338  0.000098 -0.002336
  1C   1dxz       0.000597  0.000545 -0.000060  0.000021 -0.000845  0.001351
  1C   1dyz      -0.000107 -0.000062  0.000285  0.000417 -0.000810  0.003482
  1C   1dx2y2    -0.000817 -0.000731  0.000545  0.000637 -0.000027  0.004071
  1C   1dxy       0.000134  0.000136  0.000251  0.000391 -0.000918  0.003734
  2H   1s        -0.002776 -0.002211 -0.000041  0.000249  0.000144  0.037784
  2H   2s         0.004909  0.005009  0.000396  0.000823  0.000482  0.007739
  2H   1pz        0.001251  0.001066 -0.000070 -0.000098  0.000053 -0.003053
  2H   1px        0.001232  0.001056  0.000109  0.000123 -0.000035 -0.004475
  2H   1py        0.001325  0.001130 -0.000035 -0.000056  0.000037 -0.003552
  3H   1s        -0.002065 -0.001957  0.000013  0.000117 -0.000264  0.039818
  3H   2s         0.006363  0.005763 -0.000206  0.000304 -0.001217  0.001303
  3H   1pz       -0.001994 -0.001732 -0.000129 -0.000163  0.000014  0.006002
  3H   1px       -0.000204 -0.000134  0.000243  0.000368  0.000027 -0.000631
  3H   1py        0.000491  0.000475 -0.000029 -0.000053  0.000091 -0.001553
  4H   1s        -0.002065 -0.001957  0.000013  0.000117 -0.000264  0.039817
  4H   2s         0.006363  0.005763 -0.000206  0.000304 -0.001217  0.001298
  4H   1pz        0.000134  0.000154 -0.000103 -0.000159  0.000084 -0.000215
  4H   1px        0.000346  0.000353  0.000249  0.000370  0.000045 -0.002236
  4H   1py       -0.002030 -0.001759 -0.000060 -0.000058  0.000008  0.005812
  5C   1s        -0.000071 -0.001139 -0.011770  0.056533  0.986055 -0.160788
  5C   2s        -0.000098 -0.001561 -0.001208  0.005795  0.052720  0.328842
  5C   3s         0.000328  0.005242  0.005377 -0.025753 -0.056016  0.062290
  5C   1pz       -0.000037  0.000152 -0.000040  0.000995 -0.001094  0.037308
  5C   1px       -0.000471 -0.000020  0.001687  0.000019  0.000363 -0.012384
  5C   1py       -0.000134  0.000124  0.000334  0.000844 -0.000844  0.028788
  5C   2pz        0.000570 -0.001879  0.000184 -0.003819 -0.002724  0.012626
  5C   2px        0.006950  0.000177 -0.006182 -0.000011  0.000904 -0.004179
  5C   2py        0.001996 -0.001547 -0.001192 -0.003225 -0.002102  0.009747
  5C   1dz2      -0.000013 -0.000119  0.000268 -0.000233  0.000451 -0.002900
  5C   1dxz      -0.000031  0.000036  0.001193  0.000193 -0.000008  0.000108
  5C   1dyz      -0.000011  0.000029  0.000343  0.000667 -0.000565  0.003407
  5C   1dx2y2     0.000031  0.000181 -0.000818  0.000469 -0.000860  0.005448
  5C   1dxy      -0.000015  0.000120  0.000749  0.000515 -0.000510  0.003248
  6H   1s         0.000015 -0.000030  0.001267  0.002311 -0.000238  0.066493
  6H   2s         0.000526 -0.000150 -0.005961 -0.007350  0.000224  0.003386
  6H   1pz       -0.000235 -0.000152  0.000205  0.000443 -0.000316  0.000478
  6H   1px        0.000374  0.000270  0.000551  0.000613 -0.000328  0.002566
  6H   1py       -0.000088 -0.000046 -0.001396 -0.002225 -0.000214 -0.009708
  7H   1s         0.000015 -0.000030  0.001267  0.002312 -0.000238  0.066493
  7H   2s         0.000526 -0.000150 -0.005961 -0.007350  0.000224  0.003383
  7H   1pz       -0.000208 -0.000129 -0.001415 -0.002178 -0.000197 -0.009757
  7H   1px        0.000381  0.000276  0.000133 -0.000064 -0.000297 -0.000078
  7H   1py       -0.000121 -0.000073  0.000523  0.000881 -0.000355  0.002419
  8C   1s         0.002426 -0.002539  0.826232 -0.539673  0.041542 -0.140115
  8C   2s         0.000908 -0.001205  0.044578 -0.028603  0.000323  0.285599
  8C   3s        -0.001223  0.007473 -0.048417  0.033674  0.011588  0.057507
  8C   1pz       -0.000513  0.000600  0.000891 -0.000438  0.000644 -0.031041
  8C   1px       -0.000546  0.000880 -0.000136  0.000204 -0.001448  0.033912
  8C   1py       -0.000552  0.000698  0.000723 -0.000325  0.000228 -0.018805
  8C   2pz       -0.000167 -0.000998  0.001815 -0.003593 -0.001319 -0.008773
  8C   2px        0.002565 -0.002086 -0.002595  0.000873  0.004583  0.016035
  8C   2py        0.000418 -0.001297  0.000966 -0.002842 -0.000114 -0.003913
  8C   1dz2      -0.000119  0.000133  0.000372 -0.000211  0.000410 -0.002781
  8C   1dxz       0.000512 -0.000617 -0.000074 -0.000035  0.000914 -0.001153
  8C   1dyz       0.000504 -0.000557 -0.000476  0.000237 -0.000122  0.002503
  8C   1dx2y2     0.000115 -0.000108 -0.000684  0.000411 -0.001054  0.005533
  8C   1dxy       0.000604 -0.000704 -0.000471  0.000203  0.000304  0.001995
  9H   1s        -0.000040 -0.000638 -0.000007  0.000034 -0.002595  0.077452
  9H   2s        -0.000104 -0.001658 -0.000143  0.000684  0.009655  0.003753
  9H   1pz       -0.000023  0.000166  0.000011 -0.000315  0.000472 -0.000690
  9H   1px       -0.000332 -0.000003 -0.000570  0.000059  0.000734 -0.003246
  9H   1py       -0.000098  0.000032 -0.000064 -0.000500 -0.002588  0.010986
 10H   1s        -0.000040 -0.000638 -0.000007  0.000034 -0.002595  0.077450
 10H   2s        -0.000104 -0.001658 -0.000143  0.000684  0.009655  0.003753
 10H   1pz       -0.000029  0.000063  0.000060 -0.000552 -0.002546  0.011084
 10H   1px       -0.000334 -0.000030 -0.000558 -0.000002 -0.000046 -0.000205
 10H   1py       -0.000091  0.000154 -0.000122 -0.000219  0.000988 -0.002965
 11C   1s        -0.653374  0.740685  0.003623 -0.002153  0.001050 -0.084259
 11C   2s        -0.034975  0.039300 -0.001401  0.001061 -0.000805  0.168401
 11C   3s         0.029348 -0.034745  0.010431 -0.010587  0.002386  0.047362
 11C   1pz        0.000396 -0.000476 -0.000746  0.000473  0.000001  0.021707
 11C   1px        0.000306 -0.000520 -0.000896  0.000500 -0.000162  0.035982
 11C   1py        0.000401 -0.000515 -0.000825  0.000508 -0.000035  0.026164
 11C   2pz       -0.000092 -0.000504  0.001835 -0.001801 -0.001014  0.007069
 11C   2px        0.002569 -0.002113  0.002558 -0.002509  0.001276  0.017799
 11C   2py        0.000483 -0.000886  0.002107 -0.002067 -0.000578  0.009849
 11C   1dz2      -0.000057  0.000062  0.000077 -0.000033 -0.000065 -0.001028
 11C   1dxz       0.000347 -0.000384 -0.000715  0.000466 -0.000144  0.003234
 11C   1dyz       0.000277 -0.000321 -0.000664  0.000443 -0.000065  0.002579
 11C   1dx2y2     0.000023 -0.000027 -0.000008 -0.000019  0.000143  0.000992
 11C   1dxy       0.000371 -0.000415 -0.000766  0.000490 -0.000074  0.003818
 12H   1s        -0.000018 -0.000028 -0.002086  0.001611 -0.000238  0.066497
 12H   2s        -0.000540 -0.000083  0.008405 -0.004349  0.000223  0.003384
 12H   1pz        0.000267 -0.000231 -0.000341  0.000338 -0.000240  0.000535
 12H   1px        0.000192 -0.000194 -0.000510  0.000474  0.000442  0.003139
 12H   1py        0.000242 -0.000210  0.002242 -0.001441  0.000018 -0.009535
 13H   1s        -0.000018 -0.000028 -0.002086  0.001611 -0.000238  0.066495
 13H   2s        -0.000541 -0.000083  0.008405 -0.004349  0.000223  0.003382
 13H   1pz        0.000243 -0.000205  0.002192 -0.001417 -0.000121 -0.009700
 13H   1px        0.000186 -0.000187  0.000144  0.000021  0.000473  0.000496
 13H   1py        0.000271 -0.000241 -0.000760  0.000638 -0.000123  0.002592
 14H   1s         0.001805 -0.002199 -0.000059  0.000102 -0.000264  0.039816
 14H   2s        -0.005594  0.006511  0.000067  0.000361 -0.001217  0.001300
 14H   1pz        0.001721 -0.001932  0.000244 -0.000138  0.000004  0.006093
 14H   1px       -0.000234  0.000192  0.000243 -0.000159 -0.000074  0.000285
 14H   1py       -0.000555  0.000638  0.000233 -0.000157  0.000060 -0.001276
 15H   1s         0.002479 -0.002540 -0.000062  0.000245  0.000144  0.037786
 15H   2s        -0.004246  0.005582 -0.000693  0.000596  0.000482  0.007744
 15H   1pz       -0.000829  0.000905  0.000125 -0.000071  0.000057 -0.001999
 15H   1px        0.001734 -0.001905  0.000073 -0.000025 -0.000002  0.006152
 15H   1py       -0.000321  0.000349  0.000122 -0.000066  0.000047 -0.000346
 16H   1s         0.001805 -0.002199 -0.000059  0.000102 -0.000264  0.039817
 16H   2s        -0.005594  0.006511  0.000067  0.000361 -0.001217  0.001302
 16H   1pz       -0.000156  0.000204  0.000219 -0.000144  0.000074 -0.000123
 16H   1px       -0.000719  0.000744  0.000236 -0.000160 -0.000056 -0.001321
 16H   1py        0.001668 -0.001893  0.000263 -0.000150 -0.000022  0.006089
                      6         7         8         9        10        11   
                  -0.81887  -0.74351  -0.66529  -0.64257  -0.55537  -0.52624
                   2.00000   2.00000   2.00000   2.00000   2.00000   2.00000
                  --------  --------  --------  --------  --------  --------
  0C   1s        -0.142262 -0.156303 -0.119616 -0.048907 -0.000002  0.004327
  0C   2s         0.298147  0.338680  0.263915  0.108989  0.000007 -0.008426
  0C   3s         0.017407  0.025740  0.038783 -0.047680  0.000002  0.002975
  0C   1pz        0.019462  0.007989 -0.040917 -0.062860  0.094213 -0.146387
  0C   1px       -0.052231  0.013052  0.108076  0.059595  0.024330 -0.107059
  0C   1py        0.005040  0.009589 -0.010973 -0.040062 -0.111610 -0.146913
  0C   2pz        0.001586  0.002160 -0.017477 -0.036391  0.032488 -0.053165
  0C   2px        0.003402  0.023536  0.039799  0.040911  0.008394 -0.037667
  0C   2py        0.002078  0.006951 -0.006079 -0.021802 -0.038493 -0.053097
  0C   1dz2      -0.001768  0.000626  0.001766  0.000264 -0.000352 -0.002405
  0C   1dxz      -0.003349 -0.001366  0.003800  0.005038 -0.003727  0.001267
  0C   1dyz       0.000386  0.000502 -0.000516 -0.001391 -0.000732 -0.005405
  0C   1dx2y2     0.004264 -0.000289 -0.004482 -0.002862 -0.002101  0.001798
  0C   1dxy      -0.000940 -0.001245  0.001216  0.002886  0.004102  0.000903
  1C   1s        -0.134082  0.008801  0.131460  0.107934 -0.000001  0.001311
  1C   2s         0.281995 -0.023555 -0.296144 -0.250498 -0.000001 -0.002948
  1C   3s         0.060803  0.056906 -0.041120  0.083551  0.000044 -0.019592
  1C   1pz       -0.023428  0.011750 -0.030132 -0.109662  0.153621 -0.186147
  1C   1px        0.058548  0.135879  0.062383  0.003923  0.039679 -0.043662
  1C   1py       -0.007010  0.039536 -0.011835 -0.091703 -0.182001 -0.166660
  1C   2pz       -0.014378 -0.006074 -0.006952 -0.067425  0.063523 -0.066695
  1C   2px        0.053022  0.047280  0.025324  0.010762  0.016394 -0.032294
  1C   2py       -0.000583  0.005172 -0.000349 -0.054560 -0.075265 -0.063353
  1C   1dz2      -0.001723 -0.001732 -0.002698  0.000811 -0.001492  0.003356
  1C   1dxz      -0.003395 -0.007214 -0.003753  0.001797 -0.001743 -0.001935
  1C   1dyz       0.001332 -0.002764 -0.000765  0.005892 -0.000038  0.007216
  1C   1dx2y2     0.004470  0.004939  0.005582 -0.000414 -0.001647 -0.002530
  1C   1dxy      -0.000705 -0.004666 -0.000919  0.002541  0.001528 -0.001479
  2H   1s         0.075902  0.111108  0.112075  0.031809  0.000006 -0.161083
  2H   2s         0.007821  0.008342  0.016285  0.020110  0.000004 -0.021799
  2H   1pz       -0.005192 -0.007094 -0.007643 -0.003215  0.002308  0.003465
  2H   1px       -0.007428 -0.008151 -0.004868 -0.000895  0.000595  0.007265
  2H   1py       -0.006001 -0.007764 -0.007511 -0.002908 -0.002735  0.004508
  3H   1s         0.076934  0.102350  0.111847  0.068932 -0.079623  0.061655
  3H   2s         0.009602  0.017131  0.016570  0.009455 -0.011331  0.004411
  3H   1pz        0.010350  0.012223  0.011222  0.005467 -0.004869  0.001253
  3H   1px       -0.001317  0.000038  0.002082  0.000760  0.002244 -0.003461
  3H   1py       -0.002923 -0.003759 -0.003726 -0.002585 -0.000646 -0.005186
  4H   1s         0.076933  0.102346  0.111841  0.068926  0.079618  0.061671
  4H   2s         0.009596  0.017128  0.016564  0.009445  0.011318  0.004401
  4H   1pz       -0.000558 -0.001286 -0.001872 -0.001597  0.002016 -0.004012
  4H   1px       -0.004133 -0.003449 -0.001299 -0.001064 -0.002980 -0.004820
  4H   1py        0.009999  0.012246  0.011787  0.005783  0.004025  0.001052
  5C   1s        -0.000003  0.148188 -0.000002 -0.132591  0.000000  0.000001
  5C   2s         0.000003 -0.320848  0.000004  0.305724  0.000004 -0.000013
  5C   3s         0.000004 -0.090974  0.000021 -0.081791 -0.000046  0.000042
  5C   1pz        0.009450 -0.018307 -0.012972 -0.123153  0.175283  0.024384
  5C   1px        0.095309  0.006076 -0.130845  0.040875  0.045261  0.245974
  5C   1py        0.028752 -0.014125 -0.039470 -0.095038 -0.207684  0.074186
  5C   2pz        0.004687 -0.024474 -0.002895 -0.076359  0.070204  0.010359
  5C   2px        0.047342  0.008118 -0.029240  0.025391  0.018117  0.104673
  5C   2py        0.014274 -0.018884 -0.008815 -0.058918 -0.083188  0.031567
  5C   1dz2       0.000932 -0.000854 -0.001531 -0.000022  0.001165  0.000299
  5C   1dxz       0.005247  0.000819 -0.008626  0.001392 -0.000050  0.001680
  5C   1dyz       0.002052 -0.001991 -0.003373 -0.005269 -0.000278  0.000656
  5C   1dx2y2    -0.003064  0.000468  0.005037 -0.001969  0.000558 -0.000980
  5C   1dxy       0.003643  0.000554 -0.005989 -0.000685  0.000398  0.001165
  6H   1s         0.070576 -0.007798 -0.112845 -0.132918 -0.126772 -0.093593
  6H   2s         0.007797 -0.003253 -0.016892 -0.020982 -0.009217 -0.011651
  6H   1pz        0.001160  0.000264 -0.002468 -0.002858  0.003365 -0.004380
  6H   1px        0.002718  0.002428 -0.001995 -0.003717 -0.001567 -0.003094
  6H   1py       -0.009462  0.001208  0.011224  0.010934  0.007382  0.005094
  7H   1s         0.070575 -0.007799 -0.112845 -0.132919  0.126775 -0.093570
  7H   2s         0.007788 -0.003263 -0.016893 -0.020980  0.009197 -0.011649
  7H   1pz       -0.009422  0.000702  0.010713  0.010721 -0.008048  0.004698
  7H   1px       -0.000016  0.002541  0.001408 -0.000209  0.000359 -0.000748
  7H   1py        0.003077  0.000689 -0.004392 -0.005154 -0.001832 -0.005663
  8C   1s         0.134081  0.008800 -0.131463  0.107931  0.000000 -0.001311
  8C   2s        -0.281990 -0.023559  0.296153 -0.250499 -0.000005  0.002943
  8C   3s        -0.060799  0.056909  0.041111  0.083605  0.000034  0.019661
  8C   1pz        0.033174 -0.015083  0.040190 -0.103427  0.153612  0.165912
  8C   1px        0.039765 -0.134771  0.039045  0.066807  0.039675 -0.160550
  8C   1py        0.036667 -0.042109  0.042435 -0.072736 -0.182013  0.105038
  8C   2pz        0.023638 -0.014753  0.011365 -0.065178  0.063515  0.056245
  8C   2px        0.040413 -0.040355  0.019226  0.033327  0.016402 -0.073150
  8C   2py        0.028763 -0.021253  0.013790 -0.047761 -0.075269  0.031524
  8C   1dz2       0.000613  0.000873  0.001207 -0.000294 -0.000891 -0.003014
  8C   1dxz      -0.002861  0.007456 -0.004644 -0.004432  0.001844  0.003862
  8C   1dyz      -0.003778  0.002973 -0.002519  0.003456  0.000607 -0.006462
  8C   1dx2y2    -0.000817 -0.003628 -0.000679  0.003223  0.000507  0.001405
  8C   1dxy      -0.003639  0.005521 -0.004912 -0.001785 -0.002343  0.002816
  9H   1s        -0.000000 -0.090689  0.000001  0.158815  0.145415  0.000004
  9H   2s        -0.000005 -0.013874 -0.000001  0.024396  0.012452 -0.000008
  9H   1pz        0.000110  0.001966 -0.000278 -0.003338  0.003744  0.000485
  9H   1px        0.001108  0.003084 -0.002797 -0.003717 -0.002824  0.004887
  9H   1py        0.000334 -0.010869 -0.000844  0.013414  0.008132  0.001474
 10H   1s         0.000001 -0.090688  0.000001  0.158814 -0.145412 -0.000005
 10H   2s        -0.000000 -0.013872 -0.000005  0.024406 -0.012437 -0.000007
 10H   1pz        0.000111 -0.010696 -0.000278  0.013009 -0.009102  0.000485
 10H   1px        0.001108 -0.000186 -0.002796  0.000504  0.001441  0.004887
 10H   1py        0.000335  0.004133 -0.000844 -0.005954 -0.001782  0.001475
 11C   1s         0.142262 -0.156296  0.119621 -0.048906  0.000000 -0.004327
 11C   2s        -0.298145  0.338664 -0.263925  0.108977  0.000003  0.008439
 11C   3s        -0.017414  0.025753 -0.038802 -0.047617 -0.000029 -0.003051
 11C   1pz       -0.028249  0.004976  0.059057 -0.070292  0.094207  0.116521
 11C   1px       -0.036395 -0.017353  0.074894 -0.015398  0.024339 -0.194320
 11C   1py       -0.031776  0.000417  0.066172 -0.062686 -0.111620  0.055998
 11C   2pz       -0.000824 -0.002500  0.024008 -0.041921  0.032491  0.042542
 11C   2px        0.004193 -0.023415  0.026021 -0.014882  0.008389 -0.069484
 11C   2py        0.000217 -0.007208  0.025931 -0.038627 -0.038508  0.020778
 11C   1dz2       0.000591  0.000936 -0.000462 -0.001190  0.000892  0.002105
 11C   1dxz      -0.003282  0.000383  0.003545 -0.003146  0.003704 -0.002958
 11C   1dyz      -0.002978  0.001185  0.003389 -0.004591  0.000603  0.004744
 11C   1dx2y2    -0.000393 -0.001309  0.000193  0.001917  0.002359 -0.000811
 11C   1dxy      -0.003663 -0.000031  0.003884 -0.002797 -0.003917 -0.002076
 12H   1s        -0.070575 -0.007800  0.112851 -0.132922 -0.126779  0.093582
 12H   2s        -0.007794 -0.003259  0.016891 -0.020979 -0.009205  0.011639
 12H   1pz       -0.001164 -0.000245  0.002674 -0.002732  0.003186  0.004022
 12H   1px       -0.002757 -0.002693  0.004077 -0.002444 -0.003371 -0.000523
 12H   1py        0.009450 -0.000336 -0.010596  0.011318  0.006837 -0.006184
 13H   1s        -0.070574 -0.007800  0.112849 -0.132921  0.126772  0.093580
 13H   2s        -0.007788 -0.003261  0.016894 -0.020994  0.009197  0.011644
 13H   1pz        0.009419  0.000194 -0.010507  0.010848 -0.007869 -0.005057
 13H   1px       -0.000024 -0.002580  0.000674  0.001062  0.002162 -0.002868
 13H   1py       -0.003089 -0.000856  0.005021 -0.004771 -0.001288  0.004572
 14H   1s        -0.076931  0.102340 -0.111846  0.068923 -0.079619 -0.061658
 14H   2s        -0.009597  0.017126 -0.016564  0.009446 -0.011321 -0.004410
 14H   1pz       -0.010561  0.012201 -0.010848  0.005372 -0.005151 -0.002136
 14H   1px       -0.000812 -0.000173  0.001681 -0.000190 -0.000601 -0.005441
 14H   1py        0.002280 -0.003822  0.004861 -0.002871 -0.001504  0.002501
 15H   1s        -0.075903  0.111101 -0.112078  0.031808 -0.000006  0.161078
 15H   2s        -0.007824  0.008341 -0.016286  0.020116  0.000000  0.021788
 15H   1pz        0.003435 -0.005076  0.006221 -0.002838  0.002308 -0.001848
 15H   1px       -0.010291  0.012190 -0.009470  0.002905  0.000596  0.009028
 15H   1py        0.000656 -0.001628  0.003187 -0.001762 -0.002734  0.000408
 16H   1s        -0.076932  0.102342 -0.111848  0.068924  0.079623 -0.061664
 16H   2s        -0.009598  0.017130 -0.016567  0.009446  0.011325 -0.004401
 16H   1pz        0.000346 -0.001306  0.002245 -0.001691  0.002298  0.003130
 16H   1px        0.002005 -0.003662  0.005063 -0.002014 -0.000135 -0.004081
 16H   1py       -0.010642  0.012182 -0.010652  0.005497  0.004885 -0.003738
                     12        13        14        15        16        17   
                  -0.51478  -0.50175  -0.47776  -0.46176  -0.44745  -0.42026
                   2.00000   2.00000   2.00000   2.00000   2.00000   2.00000
                  --------  --------  --------  --------  --------  --------
  0C   1s         0.000002  0.015576 -0.003433  0.000002 -0.012428  0.000017
  0C   2s        -0.000009 -0.032675  0.013704 -0.000007  0.034857 -0.000051
  0C   3s         0.000006 -0.044034 -0.018193  0.000012  0.013191  0.000031
  0C   1pz       -0.164434  0.117223 -0.183489 -0.188029  0.202336 -0.150225
  0C   1px       -0.042466 -0.237045 -0.191620 -0.048544 -0.202064 -0.038692
  0C   1py        0.194793  0.047259 -0.196656  0.222710  0.126777  0.177707
  0C   2pz       -0.064318  0.033271 -0.065584 -0.079794  0.074764 -0.049331
  0C   2px       -0.016614 -0.078728 -0.056285 -0.020603 -0.080896 -0.012721
  0C   2py        0.076205  0.010916 -0.067637  0.094518  0.045488  0.058325
  0C   1dz2       0.002799 -0.002126 -0.000103  0.008008 -0.004289  0.012216
  0C   1dxz       0.003520 -0.005360 -0.004741 -0.000898 -0.000566 -0.004912
  0C   1dyz       0.000125  0.001848 -0.007019 -0.002032  0.003498 -0.003871
  0C   1dx2y2     0.003219  0.006050  0.000200  0.003542  0.007938  0.003567
  0C   1dxy      -0.003149 -0.001624 -0.005465  0.003367  0.003807  0.009121
  1C   1s        -0.000001 -0.022088 -0.025485 -0.000004  0.013184  0.000011
  1C   2s         0.000004  0.050995  0.058485  0.000014 -0.027471 -0.000034
  1C   3s        -0.000035  0.054329  0.098320 -0.000034 -0.024968 -0.000049
  1C   1pz       -0.152625 -0.036106 -0.089044  0.011679 -0.152983  0.168304
  1C   1px       -0.039424  0.272987  0.030979  0.002991  0.237191  0.043410
  1C   1py        0.180819  0.029041 -0.068410 -0.013807 -0.077403 -0.198939
  1C   2pz       -0.070628 -0.026286 -0.061398  0.004984 -0.051677  0.061869
  1C   2px       -0.018241  0.102024 -0.013057  0.001280  0.081680  0.015927
  1C   2py        0.083675  0.000057 -0.054678 -0.005886 -0.025814 -0.073095
  1C   1dz2      -0.001755  0.002093  0.001657 -0.000783 -0.005953  0.011686
  1C   1dxz      -0.004162 -0.003529 -0.007324 -0.009142 -0.001435 -0.003919
  1C   1dyz      -0.000505  0.001800  0.001199 -0.001813  0.001876 -0.003532
  1C   1dx2y2    -0.003028 -0.001358  0.000724 -0.005115  0.010473  0.003805
  1C   1dxy       0.004181 -0.003401 -0.005928  0.010085  0.003887  0.007843
  2H   1s        -0.000015 -0.058239 -0.252665 -0.000027  0.059722 -0.000109
  2H   2s        -0.000008 -0.008570 -0.054365 -0.000011  0.014789 -0.000030
  2H   1pz       -0.004211  0.006051  0.005942 -0.005323  0.003161 -0.005101
  2H   1px       -0.001086 -0.002749  0.007973 -0.001373 -0.006968 -0.001313
  2H   1py        0.004989  0.004508  0.006752  0.006308  0.001151  0.006046
  3H   1s         0.146886 -0.093953  0.089836  0.188084 -0.126173  0.176306
  3H   2s         0.020225 -0.018542  0.017041  0.030478 -0.035213  0.057868
  3H   1pz        0.008366 -0.005794  0.001725  0.009386 -0.004528  0.007807
  3H   1px       -0.002380 -0.005417 -0.005455 -0.000886 -0.004440 -0.000466
  3H   1py        0.001432  0.003730 -0.007814  0.002134  0.006855  0.001970
  4H   1s        -0.146874 -0.093944  0.089851 -0.188044 -0.126217 -0.176130
  4H   2s        -0.020213 -0.018541  0.017034 -0.030469 -0.035216 -0.057819
  4H   1pz       -0.003466  0.003607 -0.006025 -0.004022  0.006640 -0.003484
  4H   1px        0.003644 -0.002989 -0.007456  0.002270 -0.001556  0.001583
  4H   1py       -0.007238 -0.007407  0.001370 -0.008491 -0.006380 -0.007099
  5C   1s         0.000002  0.014391  0.048532  0.000003  0.000001  0.000026
  5C   2s        -0.000002 -0.030889 -0.109960 -0.000010 -0.000007 -0.000079
  5C   3s        -0.000005 -0.051301 -0.180112  0.000024  0.000071 -0.000029
  5C   1pz       -0.000002 -0.212319  0.095550  0.183868  0.001212 -0.000284
  5C   1px        0.000011  0.070462 -0.031722  0.047479  0.011940  0.000074
  5C   1py        0.000009 -0.163836  0.073750 -0.217849  0.003569 -0.000206
  5C   2pz       -0.000011 -0.087816 -0.008314  0.085313 -0.000336 -0.000115
  5C   2px        0.000014  0.029190  0.002762  0.022024 -0.003732  0.000057
  5C   2py        0.000019 -0.067762 -0.006403 -0.101060 -0.001116 -0.000084
  5C   1dz2      -0.001234 -0.003309 -0.005478 -0.006085 -0.001151  0.001348
  5C   1dxz      -0.007371  0.003231  0.001595  0.000260 -0.006476  0.007992
  5C   1dyz      -0.001324 -0.007940  0.001146  0.001452 -0.002532  0.001433
  5C   1dx2y2    -0.004425  0.001728  0.008285 -0.002911  0.003781  0.004785
  5C   1dxy       0.007956  0.002120  0.005426 -0.002081 -0.004497 -0.008637
  6H   1s         0.132425 -0.011909 -0.026412 -0.011823 -0.121668 -0.189100
  6H   2s         0.006115 -0.000879 -0.006964 -0.003496 -0.032739 -0.049363
  6H   1pz       -0.002959 -0.000238 -0.001286  0.000371 -0.005418  0.003699
  6H   1px        0.003817  0.005906 -0.000036  0.002122  0.002963 -0.002386
  6H   1py       -0.006334  0.001594  0.000817  0.001161  0.007704  0.007599
  7H   1s        -0.132427 -0.011917 -0.026405  0.011855 -0.121684  0.189400
  7H   2s        -0.006086 -0.000892 -0.006967  0.003521 -0.032750  0.049464
  7H   1pz        0.007436  0.000250  0.000546 -0.000743  0.005740 -0.008501
  7H   1px       -0.002661  0.006032  0.000437 -0.002218  0.005843  0.001149
  7H   1py        0.001029  0.001017 -0.001354 -0.000722 -0.005514 -0.001904
  8C   1s        -0.000001 -0.022086 -0.025485  0.000001 -0.013187  0.000011
  8C   2s        -0.000002  0.050973  0.058490 -0.000001  0.027486 -0.000042
  8C   3s         0.000043  0.054410  0.098250 -0.000026  0.024890  0.000028
  8C   1pz        0.152625 -0.086223 -0.089329  0.011632  0.188767 -0.167860
  8C   1px        0.039404 -0.232379  0.028223  0.002997  0.123764 -0.043528
  8C   1py       -0.180818 -0.123432 -0.069233 -0.013837  0.186298  0.199290
  8C   2pz        0.070640 -0.044189 -0.054966  0.004949  0.064073 -0.061687
  8C   2px        0.018232 -0.078565  0.051729  0.001271  0.043208 -0.015972
  8C   2py       -0.083696 -0.054432 -0.035111 -0.005881  0.063503  0.073228
  8C   1dz2       0.000347  0.002805  0.003619  0.002265  0.005038 -0.012803
  8C   1dxz      -0.004251  0.000477  0.003733  0.009079 -0.003719 -0.002878
  8C   1dyz      -0.001006  0.003367  0.005523  0.001460 -0.003892  0.002309
  8C   1dx2y2    -0.002023 -0.003697 -0.005733  0.005823 -0.007464 -0.007909
  8C   1dxy       0.004900 -0.000620  0.001751 -0.009578 -0.007467 -0.000534
  9H   1s        -0.000004  0.102243 -0.104113  0.177396  0.000025  0.000156
  9H   2s         0.000010  0.016736 -0.019127  0.017121  0.000007  0.000054
  9H   1pz       -0.000272 -0.004792  0.004897  0.003719  0.000059  0.000047
  9H   1px       -0.002748 -0.001145  0.001649 -0.002780  0.000595  0.000566
  9H   1py       -0.000829  0.005365 -0.007079  0.007995  0.000181  0.000177
 10H   1s         0.000000  0.102250 -0.104096 -0.177404 -0.000031  0.000175
 10H   2s        -0.000004  0.016752 -0.019123 -0.017118 -0.000008  0.000059
 10H   1pz        0.000272  0.004474 -0.006202 -0.008959  0.000057 -0.000051
 10H   1px        0.002747  0.001247 -0.001217  0.001428  0.000596 -0.000566
 10H   1py        0.000829 -0.005612  0.006072 -0.001788  0.000179 -0.000181
 11C   1s        -0.000001  0.015576 -0.003431 -0.000000  0.012430  0.000018
 11C   2s         0.000005 -0.032682  0.013687 -0.000001 -0.034862 -0.000049
 11C   3s        -0.000028 -0.043991 -0.018113  0.000015 -0.013200 -0.000022
 11C   1pz        0.164427  0.155243 -0.134996 -0.187961 -0.228279  0.149935
 11C   1px        0.042460  0.146625  0.297337 -0.048530 -0.059126  0.038765
 11C   1py       -0.194804  0.162992 -0.049142  0.222744 -0.205519 -0.177954
 11C   2pz        0.064318  0.046260 -0.050583 -0.079769 -0.085559  0.049222
 11C   2px        0.016610  0.052347  0.094901 -0.020595 -0.027654  0.012732
 11C   2py       -0.076214  0.050460 -0.022025  0.094530 -0.078230 -0.058429
 11C   1dz2      -0.001589 -0.000414  0.001916  0.008192  0.003945 -0.013664
 11C   1dxz       0.003706  0.004279  0.006632  0.000209 -0.001378 -0.003807
 11C   1dyz       0.001173  0.005617 -0.002571 -0.001832 -0.004259  0.002304
 11C   1dx2y2     0.001119  0.000422 -0.006441  0.004207 -0.006803 -0.008815
 11C   1dxy      -0.004650  0.005070  0.002432  0.002175 -0.005157  0.000271
 12H   1s        -0.132417 -0.011933 -0.026405 -0.011852  0.121683  0.189397
 12H   2s        -0.006096 -0.000886 -0.006957 -0.003522  0.032737  0.049470
 12H   1pz        0.003249 -0.001386 -0.001302 -0.000082  0.006273 -0.003635
 12H   1px       -0.000886 -0.005657 -0.000188 -0.002438  0.005668  0.002881
 12H   1py        0.007217 -0.001893  0.000771 -0.000212 -0.005101 -0.007463
 13H   1s         0.132428 -0.011930 -0.026415  0.011822  0.121685 -0.189108
 13H   2s         0.006078 -0.000894 -0.006962  0.003520  0.032744 -0.049369
 13H   1pz       -0.007726 -0.000897  0.000531 -0.000290 -0.004884  0.008445
 13H   1px       -0.000270 -0.005531  0.000286  0.002341  0.002787 -0.001644
 13H   1py       -0.001912 -0.002472 -0.001401  0.000651  0.008117  0.001773
 14H   1s        -0.146882 -0.093941  0.089819  0.188037  0.126215 -0.176138
 14H   2s        -0.020215 -0.018549  0.017037  0.030462  0.035224 -0.057807
 14H   1pz       -0.008566 -0.004917  0.003101  0.009260  0.004022 -0.007641
 14H   1px        0.000348  0.003424  0.008426 -0.002137 -0.000687  0.002109
 14H   1py       -0.002046  0.006397 -0.003626  0.001759 -0.008400 -0.001486
 15H   1s         0.000005 -0.058257 -0.252654 -0.000004 -0.059726 -0.000090
 15H   2s         0.000004 -0.008574 -0.054353  0.000000 -0.014773 -0.000027
 15H   1pz        0.004211  0.006193  0.004032 -0.005322 -0.004299  0.005100
 15H   1px        0.001088 -0.001316 -0.011283 -0.001375 -0.004492  0.001313
 15H   1py       -0.004988  0.004940  0.000944  0.006307 -0.004606 -0.006046
 16H   1s         0.146878 -0.093946  0.089833 -0.188062  0.126175  0.176314
 16H   2s         0.020219 -0.018546  0.017034 -0.030474  0.035211  0.057878
 16H   1pz        0.003667  0.004483 -0.004649 -0.003896 -0.007149  0.003310
 16H   1px       -0.001614  0.005852  0.006424  0.003524 -0.003571 -0.003226
 16H   1py        0.007851 -0.004741  0.005557 -0.008113  0.004831  0.006609
                     18        19        20        21        22        23   
                  -0.41942  -0.41643  -0.40490  -0.02610  -0.01118  -0.00179
                   2.00000   2.00000   2.00000   0.00000   0.00000   0.00000
                  --------  --------  --------  --------  --------  --------
  0C   1s         0.016087 -0.015241  0.000003  0.046523  0.094866  0.000066
  0C   2s        -0.045987  0.039207 -0.000005 -0.116015 -0.242510 -0.000150
  0C   3s         0.002771  0.046986 -0.000032 -0.583376 -1.060498 -0.000838
  0C   1pz       -0.139979 -0.087925  0.073453  0.052952  0.017149 -0.099096
  0C   1px        0.077719 -0.224619  0.019003 -0.099303 -0.075373 -0.025721
  0C   1py       -0.101534 -0.123202 -0.087070  0.022990 -0.002105  0.117576
  0C   2pz       -0.054474 -0.024579  0.012931  0.153666  0.061968 -0.177042
  0C   2px        0.017341 -0.101385  0.003365 -0.223528 -0.280396 -0.046064
  0C   2py       -0.042297 -0.042854 -0.015327  0.080925 -0.009014  0.210083
  0C   1dz2       0.004963  0.003273 -0.009628  0.001289  0.003922 -0.010345
  0C   1dxz      -0.003834 -0.010341  0.004070  0.010032  0.007440  0.005367
  0C   1dyz      -0.001687 -0.003733  0.003094 -0.004567  0.002100  0.003543
  0C   1dx2y2    -0.006721 -0.001926 -0.002717 -0.007388 -0.008652 -0.002420
  0C   1dxy      -0.006812 -0.010767 -0.007424  0.004632  0.003048 -0.009105
  1C   1s         0.010653  0.010409  0.000000  0.065460  0.072678  0.000033
  1C   2s        -0.036284 -0.025061  0.000000 -0.178241 -0.188412 -0.000092
  1C   3s        -0.004431 -0.047290 -0.000010 -0.757229 -0.989752 -0.000396
  1C   1pz        0.209792  0.094162 -0.151885 -0.098933 -0.003740 -0.132439
  1C   1px       -0.015173  0.226303 -0.039254 -0.012875  0.096133 -0.034173
  1C   1py        0.174092  0.128839  0.179998 -0.086400  0.017591  0.157098
  1C   2pz        0.082016  0.043932 -0.031210 -0.281971  0.026194 -0.247273
  1C   2px       -0.022903  0.067491 -0.008038  0.002256  0.271126 -0.063826
  1C   2py        0.064349  0.051799  0.036984 -0.237636  0.080850  0.293508
  1C   1dz2       0.008955 -0.000587 -0.017730  0.000419  0.006232  0.018548
  1C   1dxz      -0.002742 -0.010304 -0.001973 -0.001497  0.006773 -0.000036
  1C   1dyz      -0.001088 -0.005329  0.003635 -0.012154  0.003343 -0.004264
  1C   1dx2y2    -0.013293  0.003704 -0.009893 -0.003352 -0.011711  0.009263
  1C   1dxy      -0.008736 -0.008465 -0.002991 -0.005210  0.001286  0.005508
  2H   1s        -0.095363 -0.218146 -0.000007  0.055455  0.067922  0.000007
  2H   2s        -0.025647 -0.072934 -0.000007  0.291761  0.608672  0.000300
  2H   1pz       -0.000007  0.006214  0.002807  0.004501  0.008083 -0.001509
  2H   1px        0.004920  0.003225  0.000726  0.001079  0.002286 -0.000395
  2H   1py        0.001055  0.005947 -0.003326  0.004033  0.007317  0.001800
  3H   1s         0.084849  0.056130 -0.100601  0.033430  0.050135 -0.071275
  3H   2s         0.028357  0.017111 -0.049645  0.358085  0.534261 -0.406443
  3H   1pz        0.001515  0.000572 -0.003730 -0.005606 -0.008589  0.006756
  3H   1px        0.001707 -0.005526  0.000779 -0.008374 -0.004907 -0.000381
  3H   1py       -0.005397 -0.005515 -0.000876  0.004594  0.001571  0.000755
  4H   1s         0.085216  0.056163  0.100631  0.033432  0.050078  0.071441
  4H   2s         0.028471  0.017121  0.049665  0.357886  0.533738  0.407633
  4H   1pz       -0.005237 -0.004025  0.001711  0.005091  0.000901 -0.002086
  4H   1px       -0.000041 -0.006713 -0.001299 -0.005612 -0.002457  0.001582
  4H   1py        0.002627 -0.000067  0.003267 -0.008077 -0.009660 -0.006304
  5C   1s         0.024072 -0.000004  0.000003  0.079455  0.000011  0.000031
  5C   2s        -0.070463  0.000012 -0.000011 -0.214429 -0.000025 -0.000079
  5C   3s        -0.034255 -0.000024  0.000010 -0.910904 -0.000526 -0.000409
  5C   1pz       -0.248460 -0.033133  0.183075  0.103582  0.012427 -0.147526
  5C   1px        0.082419 -0.334433  0.047324 -0.034377  0.124773 -0.038095
  5C   1py       -0.191691 -0.100877 -0.216967  0.079918  0.037497  0.175056
  5C   2pz       -0.107417 -0.011489  0.038241  0.296848  0.054096 -0.253790
  5C   2px        0.035687 -0.115892  0.009876 -0.098406  0.547256 -0.065433
  5C   2py       -0.082864 -0.034962 -0.045283  0.229033  0.164613  0.301511
  5C   1dz2       0.008531 -0.001722 -0.020373  0.000708 -0.003065 -0.018964
  5C   1dxz      -0.002412 -0.009690  0.000868  0.002884 -0.017330  0.000794
  5C   1dyz      -0.002091 -0.003789  0.004860 -0.011922 -0.006778  0.004519
  5C   1dx2y2    -0.013019  0.005658 -0.009748 -0.005532  0.010123 -0.009079
  5C   1dxy      -0.008480 -0.006728 -0.006971 -0.002279 -0.012034 -0.006505
  6H   1s         0.136567  0.036575  0.196367  0.047734  0.047776 -0.118147
  6H   2s         0.046400  0.011448  0.085987  0.528454  0.426555 -0.581939
  6H   1pz        0.007333  0.002411 -0.003686 -0.007933 -0.000649 -0.002409
  6H   1px        0.001911  0.006050  0.002214 -0.005720  0.005899  0.004839
  6H   1py       -0.005157  0.000416 -0.007186  0.006820  0.007562 -0.007341
  7H   1s         0.136215  0.036536 -0.196330  0.047735  0.047670  0.118100
  7H   2s         0.046310  0.011425 -0.085959  0.528041  0.425650  0.581660
  7H   1pz       -0.003934 -0.000405  0.008056  0.006225  0.005887  0.008516
  7H   1px       -0.001005  0.005322 -0.001089 -0.002062  0.007593 -0.003249
  7H   1py        0.008214  0.003754  0.002009 -0.009959 -0.000194  0.000105
  8C   1s         0.010651 -0.010411  0.000003  0.065430 -0.072681 -0.000045
  8C   2s        -0.036282  0.025067 -0.000012 -0.178183  0.188423  0.000117
  8C   3s        -0.004300  0.047344 -0.000003 -0.756493  0.990148  0.000553
  8C   1pz        0.199665 -0.044766 -0.151882 -0.090149  0.022090 -0.132423
  8C   1px       -0.120660  0.272431 -0.039271  0.075692  0.087579 -0.034202
  8C   1py        0.141808  0.021600  0.180000 -0.059628  0.037607  0.157076
  8C   2pz        0.081256 -0.028204 -0.031212 -0.264473  0.027640 -0.247291
  8C   2px       -0.031317  0.091450 -0.008081  0.179022  0.271181 -0.063810
  8C   2py        0.061597 -0.003874  0.036962 -0.184280  0.082239  0.293406
  8C   1dz2       0.008960 -0.003048 -0.016824  0.001805 -0.003258  0.018292
  8C   1dxz      -0.002865 -0.010151  0.003443  0.006309  0.010086 -0.001516
  8C   1dyz      -0.001140 -0.002669  0.004608 -0.009102  0.003260 -0.004531
  8C   1dx2y2    -0.013209  0.008242 -0.006642 -0.007907  0.001858  0.008376
  8C   1dxy      -0.008809 -0.005738 -0.008834  0.000215  0.010415  0.007121
  9H   1s         0.150807 -0.000000  0.235643  0.051858 -0.000092  0.122171
  9H   2s         0.052717 -0.000003  0.101348  0.607846 -0.000443  0.616448
  9H   1pz       -0.008189 -0.000759  0.004403  0.008426  0.001394 -0.003135
  9H   1px       -0.000944 -0.007658 -0.003027  0.002038  0.014017  0.003174
  9H   1py        0.005809 -0.002310  0.008591 -0.009536  0.004233 -0.009460
 10H   1s         0.150867 -0.000018 -0.235601  0.051920  0.000030 -0.122001
 10H   2s         0.052753 -0.000014 -0.101319  0.607902  0.000326 -0.615302
 10H   1pz        0.004213 -0.000760 -0.009711 -0.007969  0.001385  0.010326
 10H   1px        0.002258 -0.007657  0.001660 -0.002196  0.014020 -0.001295
 10H   1py       -0.008881 -0.002309 -0.002306  0.009890  0.004232  0.000936
 11C   1s         0.016092  0.015237  0.000001  0.046525 -0.094917 -0.000053
 11C   2s        -0.046000 -0.039190 -0.000000 -0.116039  0.242675  0.000142
 11C   3s         0.002665 -0.047010 -0.000030 -0.583537  1.061089  0.000559
 11C   1pz       -0.146282  0.039244  0.073463  0.068630 -0.030467 -0.099077
 11C   1px        0.017245 -0.266831  0.018993  0.058924 -0.059568 -0.025674
 11C   1py       -0.119350 -0.025044 -0.087068  0.070767 -0.038797  0.117540
 11C   2pz       -0.054470  0.003572  0.012938  0.186583 -0.111566 -0.176978
 11C   2px        0.018790 -0.110754  0.003335  0.110503 -0.222914 -0.045934
 11C   2py       -0.041754 -0.021127 -0.015336  0.181652 -0.143021  0.209996
 11C   1dz2       0.005771 -0.006384 -0.010845 -0.001541 -0.001063 -0.011983
 11C   1dxz       0.000565 -0.007163 -0.003198 -0.005907  0.008621 -0.004409
 11C   1dyz       0.000027 -0.003112  0.001790 -0.010801  0.004179  0.001787
 11C   1dx2y2    -0.009277  0.012149 -0.007080  0.001922 -0.000716 -0.008289
 11C   1dxy      -0.003748 -0.001388  0.000419 -0.006443  0.008116  0.001457
 12H   1s         0.136161 -0.036578  0.196370  0.047727 -0.047638 -0.118187
 12H   2s         0.046280 -0.011446  0.085992  0.528012 -0.425762 -0.582188
 12H   1pz        0.007147 -0.001256 -0.003629 -0.007130  0.002119 -0.002836
 12H   1px       -0.000058  0.005604  0.002791  0.002371  0.008845  0.000516
 12H   1py       -0.005732  0.003099 -0.007012  0.009262 -0.003107 -0.008654
 13H   1s         0.136611 -0.036579 -0.196334  0.047721 -0.047760  0.118031
 13H   2s         0.046410 -0.011453 -0.085970  0.527839 -0.426236  0.581195
 13H   1pz       -0.004146  0.001562  0.008000  0.007028 -0.004436  0.008937
 13H   1px       -0.002965  0.006331 -0.001666  0.006029  0.007152  0.001074
 13H   1py        0.007620 -0.000240  0.001836 -0.007516  0.004646  0.001412
 14H   1s         0.085219 -0.056160 -0.100605  0.033394 -0.050060 -0.071324
 14H   2s         0.028481 -0.017120 -0.049643  0.357924 -0.534080 -0.406872
 14H   1pz        0.001490 -0.001857 -0.003756 -0.004248  0.007636  0.006673
 14H   1px        0.001283 -0.007432  0.000517  0.005326 -0.004684 -0.001325
 14H   1py       -0.005518  0.001606 -0.000955  0.008728 -0.004471  0.000467
 15H   1s        -0.095320  0.218165 -0.000023  0.055478 -0.067959 -0.000090
 15H   2s        -0.025605  0.072932 -0.000012  0.291735 -0.608867 -0.000625
 15H   1pz       -0.000963 -0.005198  0.002807  0.004006 -0.007130 -0.001517
 15H   1px       -0.004596  0.007014  0.000724 -0.003898  0.007330 -0.000383
 15H   1py       -0.001802 -0.002859 -0.003326  0.002531 -0.004421  0.001794
 16H   1s         0.084816 -0.056157  0.100630  0.033406 -0.050155  0.071361
 16H   2s         0.028349 -0.017119  0.049666  0.358030 -0.534571  0.406843
 16H   1pz       -0.005285  0.002741  0.001737  0.006451 -0.001854 -0.001994
 16H   1px       -0.000458 -0.006245 -0.001037  0.008089 -0.007138  0.002529
 16H   1py        0.002485 -0.003842  0.003346 -0.003943  0.006778 -0.006006
                     24        25        26        27        28        29   
                   0.00825   0.02516   0.04177   0.04368   0.04437   0.06770
                   0.00000   0.00000   0.00000   0.00000   0.00000   0.00000
                  --------  --------  --------  --------  --------  --------
  0C   1s         0.007403  0.121877  0.000061  0.035115 -0.007269  0.000057
  0C   2s        -0.012049 -0.284040 -0.000115 -0.078006  0.013107 -0.000091
  0C   3s        -0.201228 -1.946396 -0.001080 -0.694506  0.370243 -0.001491
  0C   1pz        0.144646 -0.075162 -0.184802  0.208004 -0.054381  0.129432
  0C   1px       -0.014454  0.068321 -0.047892  0.089991 -0.212178  0.033369
  0C   1py        0.118795 -0.048518  0.219525  0.194580 -0.092610 -0.153394
  0C   2pz        0.295251 -0.233864 -0.393420  0.460537 -0.164567  0.381179
  0C   2px       -0.006100  0.329406 -0.101882  0.327313 -0.651041  0.098740
  0C   2py        0.247605 -0.125569  0.467335  0.458884 -0.281952 -0.451953
  0C   1dz2       0.008922 -0.003617 -0.021087  0.004840 -0.001311  0.010461
  0C   1dxz      -0.009151 -0.005250  0.006043 -0.012847  0.018110  0.009169
  0C   1dyz      -0.004511  0.002847  0.006141 -0.015586  0.013295 -0.000402
  0C   1dx2y2    -0.011507  0.008624 -0.007443 -0.006523 -0.001708  0.009982
  0C   1dxy      -0.014237 -0.000158 -0.013041 -0.017350  0.017838 -0.007275
  1C   1s        -0.021147 -0.076749 -0.000081 -0.034569 -0.023085 -0.000097
  1C   2s         0.041144  0.178557  0.000172  0.063239  0.064749  0.000185
  1C   3s         0.351786  1.163588  0.001808  0.809797  0.400247  0.002069
  1C   1pz        0.154055 -0.041898 -0.088037  0.017005  0.064918 -0.161294
  1C   1px       -0.009973  0.105305 -0.022899  0.015537 -0.191718 -0.041670
  1C   1py        0.127655 -0.012396  0.104446  0.017378  0.013002  0.191036
  1C   2pz        0.260688 -0.111193 -0.169156 -0.151484  0.296533 -0.475585
  1C   2px        0.019509  0.598012 -0.044332  0.044805 -0.737872 -0.122715
  1C   2py        0.223996  0.036651  0.200410 -0.118839  0.089657  0.562924
  1C   1dz2      -0.013774  0.009538  0.015977 -0.008049 -0.000948  0.004582
  1C   1dxz       0.007495  0.013690 -0.008935  0.009954 -0.020292 -0.000325
  1C   1dyz      -0.004752  0.004572 -0.005620 -0.008780  0.008791 -0.001134
  1C   1dx2y2     0.017298 -0.019396  0.003409  0.006155  0.012186  0.002133
  1C   1dxy       0.013639  0.004139  0.014788  0.009909 -0.010724  0.001706
  2H   1s        -0.100085  0.049205 -0.000066 -0.156422  0.196821  0.000061
  2H   2s        -0.459605  0.777664 -0.000399 -0.830292  0.840136  0.000663
  2H   1pz        0.000456  0.003156 -0.005228 -0.005343  0.006826  0.008813
  2H   1px       -0.008159  0.010875 -0.001357 -0.007164  0.004568  0.002284
  2H   1py       -0.001396  0.005035  0.006191 -0.006087  0.006738 -0.010439
  3H   1s         0.078750  0.032427 -0.144081  0.103005 -0.053708  0.074951
  3H   2s         0.428741  0.495473 -0.858919  0.751521 -0.218124  0.632353
  3H   1pz       -0.004994 -0.007599  0.012544 -0.006575 -0.001806 -0.010381
  3H   1px       -0.000922  0.007164 -0.004055  0.005174 -0.010294 -0.005923
  3H   1py        0.003731 -0.000144  0.001628  0.012381 -0.007978 -0.003579
  4H   1s         0.078646  0.032440  0.144361  0.102578 -0.054061 -0.074929
  4H   2s         0.428188  0.495567  0.861183  0.748963 -0.220232 -0.631692
  4H   1pz        0.002824 -0.003083 -0.004777  0.009556 -0.005831  0.004174
  4H   1px        0.001094  0.008332  0.006064  0.009313 -0.011339  0.004326
  4H   1py       -0.005518 -0.005495 -0.010836 -0.006679 -0.003165  0.010926
  5C   1s         0.014666 -0.026795  0.000083 -0.000661  0.088296  0.000015
  5C   2s        -0.025811  0.085494 -0.000194  0.001473 -0.200673 -0.000064
  5C   3s        -0.346279  0.376964 -0.001103  0.009165 -1.180412 -0.000284
  5C   1pz        0.183014 -0.029528 -0.000001  0.002816 -0.018290  0.123173
  5C   1px       -0.060654  0.009820  0.000034  0.026634  0.006463  0.031533
  5C   1py        0.141049 -0.022789  0.000005  0.008173 -0.014195 -0.146017
  5C   2pz        0.390051 -0.046509 -0.000372 -0.025102 -0.335467  0.385011
  5C   2px       -0.129161  0.015252 -0.000411 -0.282135  0.110116  0.098623
  5C   2py        0.300760 -0.035960 -0.000267 -0.082748 -0.259468 -0.456291
  5C   1dz2       0.013875 -0.013590 -0.000806  0.000954  0.005283 -0.005404
  5C   1dxz      -0.004525  0.005248 -0.004881  0.005642 -0.007418  0.000241
  5C   1dyz      -0.001045 -0.002079 -0.000858  0.002018  0.021452  0.001281
  5C   1dx2y2    -0.020248  0.018685 -0.002938 -0.003257  0.000556 -0.002599
  5C   1dxy      -0.013474  0.012803  0.005277  0.003871 -0.002176 -0.001824
  6H   1s        -0.088273  0.010533 -0.113908 -0.043689 -0.064498 -0.048610
  6H   2s        -0.500374 -0.273603 -0.441495 -0.250547 -0.445240 -0.763960
  6H   1pz       -0.000348 -0.001631 -0.002463 -0.004358  0.006751 -0.002237
  6H   1px        0.005183  0.012791  0.004053  0.002049 -0.006893  0.004383
  6H   1py       -0.006233 -0.001647 -0.005375 -0.003864 -0.006024 -0.008867
  7H   1s        -0.088426  0.010585  0.113639 -0.044091 -0.064687  0.048530
  7H   2s        -0.501061 -0.273408  0.439657 -0.252331 -0.445097  0.762742
  7H   1pz       -0.007144 -0.004566  0.006454 -0.004987 -0.003061  0.009830
  7H   1px        0.003437  0.012034 -0.003027  0.001898 -0.009419 -0.002425
[...]
     21      -0.026374   0.021122   0.073060  -0.001114  -0.009587   0.006846
     22       0.011046  -0.244241  -0.317876  -0.040868  -0.135859   0.126651
     23       0.020588  -0.042887  -0.056211   0.146886   0.480829  -0.454296
     24      -0.002892   0.033524  -0.018330   0.004736  -0.011988  -0.011409
     25       0.014738  -0.016691   0.027587  -0.008257   0.028783   0.027709
     26      -0.012175  -0.028414   0.037406  -0.011127   0.037320   0.035869
     27       0.052107   0.029557   0.031004   0.186634  -0.001776   0.058396
     28       0.015737   0.008903   0.008030  -0.634856   0.000646  -0.198563
     29       0.001147   0.003666  -0.336486   0.048363  -0.000232   0.014796
     30      -0.050682   0.029554   0.101682   0.009330  -0.001477   0.002998
     31      -0.019554   0.009666  -0.316195   0.180324  -0.000791   0.056023
     32      -0.005798   0.003057  -0.062927  -0.642707   0.001120  -0.200780
     33      -0.004917   0.021255  -0.015727  -0.003030   0.002730   0.001990
     34       0.023326  -0.010900   0.006475  -0.002457  -0.001469  -0.003811
     35      -0.020022  -0.018414   0.011722  -0.002129  -0.002467  -0.005054
     36       0.010726  -0.071749   0.053882  -0.043403   0.136725   0.133521
     37       0.022393  -0.028609   0.023217   0.143848  -0.474947  -0.454110
     38       0.023076   0.238466  -0.325966  -0.011089   0.035859   0.033663
     39      -0.010817  -0.124846   0.124739  -0.003152   0.004283   0.006864
     40      -0.026287   0.214893  -0.302558  -0.041284   0.133317   0.127528
     41      -0.024769   0.032966  -0.051067   0.146125  -0.478494  -0.457973
     42       0.345963  -0.176962   0.113197  -0.001599   0.002191   0.001237
     43       0.025560   0.340361  -0.228773  -0.014842  -0.004084  -0.015932
     44      -0.016221   0.081496  -0.054889   0.051044   0.013489   0.053690
     45       0.078190  -0.067057   0.041023   0.049934  -0.037008  -0.014473
     46      -0.365458  -0.162604   0.105333  -0.008640   0.005888   0.002975
     47       0.304812  -0.174942   0.114311  -0.023106   0.016510   0.007248
     48      -0.339393  -0.100599   0.061858  -0.015835  -0.001698  -0.013909
     49      -0.066718  -0.011933   0.006416   0.050612   0.013826   0.053737
     50       0.060088   0.379025  -0.253537  -0.004209  -0.001803  -0.005334
                 42         43         44         45         46         47    
      0      -0.032309  -0.031686   0.000788  -0.002345  -0.003025  -0.010685
      1       0.005857   0.005613  -0.003474   0.010644   0.013752   0.047992
      2       0.015383   0.014933   0.002910  -0.008980  -0.011617  -0.040939
      3       0.000960   0.000386  -0.006272   0.010596   0.008276  -0.002510
      4       0.000051   0.001147   0.028739  -0.048537  -0.037916   0.011518
      5      -0.000229   0.001193  -0.024209   0.040897   0.031947  -0.009747
      6       0.228417   0.226068  -0.000088  -0.000679  -0.000852   0.000146
      7       0.215668   0.212611  -0.000696   0.003943   0.004899   0.011751
      8       0.196367   0.193353   0.000275  -0.003083  -0.003840  -0.006325
      9       0.015867   0.015863   0.002899  -0.004732  -0.004342  -0.025767
     10       0.118816   0.115996   0.009522  -0.027972  -0.035244  -0.126073
     11      -0.410975  -0.401474  -0.036469   0.106963   0.133602   0.469331
     12       0.130294   0.127603  -0.013016   0.033964   0.040914   0.153226
     13      -0.405585  -0.396100   0.036324  -0.105643  -0.132125  -0.458934
     14       0.032425   0.031531  -0.001653   0.005520   0.007494   0.026011
     15       0.000569  -0.002656   0.012151   0.000026   0.009182   0.000004
     16       0.000185   0.006142  -0.055630  -0.000108  -0.042088  -0.000006
     17       0.000093   0.008083   0.046670   0.000091   0.035415   0.000004
     18      -0.001738   0.004128   0.086021  -0.140567  -0.105442   0.033346
     19       0.001832  -0.019741  -0.282901   0.464660   0.363003  -0.104345
     20       0.000473   0.001935   0.010408  -0.019547  -0.014893   0.005696
     21      -0.001302  -0.001418  -0.009035   0.013619   0.006595  -0.004494
     22      -0.000327   0.005423  -0.069849   0.116916   0.089892  -0.028092
     23       0.002616  -0.018775   0.286777  -0.470498  -0.366720   0.106336
     24       0.000757  -0.001166  -0.006251  -0.010579   0.008287   0.002517
     25       0.000496   0.000670   0.028638   0.048517  -0.038018  -0.011544
     26       0.000388   0.001061  -0.024108  -0.040873   0.032037   0.009741
     27      -0.001890   0.029143  -0.161639   0.002145  -0.117736  -0.003696
     28      -0.000817  -0.098777   0.542895   0.001800   0.396376  -0.001019
     29      -0.000173   0.006700  -0.020942   0.000202  -0.018006  -0.000365
     30      -0.001947   0.001727   0.014008  -0.002449   0.009429   0.003676
     31      -0.000480   0.027418   0.133114  -0.000490   0.100137   0.001117
     32      -0.000631  -0.100687  -0.546261  -0.001290  -0.399776   0.000340
     33      -0.020212   0.020275   0.000749   0.002325  -0.003015   0.010466
     34      -0.021614   0.021472  -0.003458  -0.010644   0.013811  -0.048189
     35      -0.020406   0.020224   0.002898   0.008971  -0.011646   0.040700
     36      -0.000218   0.007092   0.082668   0.136287  -0.110425  -0.029013
     37      -0.002802  -0.018805  -0.283028  -0.465918   0.362653   0.106023
     38      -0.000653   0.002245   0.010145   0.019258  -0.015506  -0.005301
     39      -0.000764   0.001579  -0.005978  -0.009529   0.011423   0.000083
     40      -0.000309   0.006402  -0.068540  -0.115441   0.091459   0.026707
     41      -0.002727  -0.018762   0.285835   0.470523  -0.367174  -0.106682
     42       0.003992  -0.004226  -0.001014   0.000077  -0.001213  -0.005509
     43      -0.111681   0.110782   0.008343   0.026555  -0.034390   0.116138
     44       0.409105  -0.406837  -0.036873  -0.107492   0.134423  -0.471154
     45       0.337061  -0.338909   0.000148   0.000712  -0.000924   0.002343
     46      -0.043766   0.043439  -0.000506  -0.003784   0.004735  -0.009715
     47      -0.138695   0.138782   0.000422   0.003251  -0.004048   0.008083
     48      -0.109187   0.108269  -0.008867  -0.029118   0.037767  -0.121861
     49       0.408475  -0.406221   0.037115   0.106895  -0.133512   0.469180
     50      -0.030279   0.029898  -0.001240  -0.005063   0.007229  -0.023096
                  48         49         50    
      0      -0.010487  -0.024646  -0.021943
      1       0.047011  -0.045032  -0.040000
      2      -0.040153  -0.046348  -0.041165
      3      -0.002971   0.000977   0.000931
      4       0.013631  -0.002606  -0.002773
      5      -0.011532  -0.003199  -0.003400
      6       0.000423   0.401299   0.357501
      7       0.011535   0.364662   0.324644
      8      -0.005840   0.328215   0.292131
      9      -0.025869  -0.017382  -0.015590
     10      -0.123829  -0.084297  -0.074986
     11       0.460762   0.255356   0.226898
     12       0.150875  -0.092714  -0.082513
     13      -0.450109   0.257670   0.228850
     14       0.025437  -0.028964  -0.025781
     15      -0.001622   0.000323   0.000096
     16       0.007447   0.000064  -0.000278
     17      -0.006282   0.000024  -0.000321
     18       0.038264  -0.010885  -0.010908
     19      -0.126814   0.034065   0.037238
     20       0.006131  -0.001440  -0.001480
     21      -0.003486  -0.001510  -0.000741
     22      -0.032805  -0.008409  -0.008923
     23       0.128850   0.033405   0.036571
     24      -0.002978  -0.001028   0.001490
     25       0.013665   0.002161  -0.002867
     26      -0.011535   0.002820  -0.003741
     27       0.021505   0.002076  -0.002937
     28      -0.072166   0.001378   0.009431
     29       0.002654   0.000196  -0.000415
     30      -0.001907   0.002251  -0.000362
     31      -0.017720   0.000583  -0.002346
     32       0.073209   0.000621   0.009271
     33      -0.010273  -0.047324   0.053007
     34       0.047284   0.018954  -0.021206
     35      -0.039930   0.034647  -0.038730
     36       0.037243   0.008005  -0.012123
     37      -0.127558  -0.029465   0.040416
     38       0.006070   0.001105  -0.001640
     39      -0.002384   0.000054  -0.001101
     40      -0.032438   0.007050  -0.009995
     41       0.128975  -0.029677   0.040610
     42       0.005904  -0.012837   0.014547
     43      -0.113824   0.067149  -0.075085
     44       0.462973  -0.232906   0.260454
     45      -0.002210   0.522908  -0.586642
     46       0.009329  -0.059411   0.066480
     47      -0.007784  -0.205122   0.229927
     48       0.119220   0.053061  -0.059271
     49      -0.461166  -0.235705   0.264095
     50       0.022516   0.022873  -0.025632


-----------
IR SPECTRUM
-----------

 Mode    freq (cm**-1)   T**2         TX         TY         TZ
-------------------------------------------------------------------
   6:       112.31    0.000004  (  0.001071   0.000539   0.001730)
   7:       116.84    0.000080  ( -0.002501   0.006223  -0.005929)
   8:       178.36    0.032880  (  0.046193  -0.107501  -0.138525)
   9:       247.03    0.000018  (  0.001177   0.003542  -0.002081)
  10:       255.22    0.000022  (  0.003643  -0.000623   0.002916)
  11:       393.60    0.000004  ( -0.000761  -0.001318  -0.001465)
  12:       395.09    0.003529  (  0.016717  -0.035184  -0.044855)
  13:       723.55    4.976375  ( -0.367136   1.679189  -1.421939)
  14:       749.52    0.000034  ( -0.000315  -0.004163   0.004097)
  15:       843.14    1.820136  ( -0.223939   1.017606  -0.857009)
  16:       858.25    1.402952  (  0.301178  -0.698716  -0.907766)
  17:       916.07    2.635864  (  1.549035   0.462089   0.151095)
  18:       963.13    0.000146  (  0.001366  -0.008612   0.008374)
  19:      1016.88    0.885885  (  0.898152   0.267109   0.088663)
  20:      1041.53    0.577652  ( -0.193759   0.448030   0.582562)
  21:      1064.43    0.352257  (  0.566034   0.169601   0.055658)
  22:      1127.90    1.194567  (  0.279077  -0.646245  -0.836093)
  23:      1157.36    0.227971  (  0.079634  -0.359966   0.303403)
  24:      1217.83    0.000076  (  0.001295  -0.006046   0.006142)
  25:      1240.42    6.630672  (  2.453280   0.743236   0.244314)
  26:      1278.57    0.390909  (  0.103940  -0.470578   0.398324)
  27:      1283.56    0.000013  ( -0.000589   0.002393  -0.002625)
  28:      1316.73    0.012591  ( -0.029862   0.065349   0.086191)
  29:      1353.99    0.045234  ( -0.198950  -0.068316  -0.031403)
  30:      1360.27    1.308247  ( -0.264333   0.682560   0.878913)
  31:      1360.79    2.665580  (  1.560381   0.459134   0.141377)
  32:      1418.65    0.008242  (  0.007618  -0.055135  -0.071723)
  33:      1418.99    0.677387  (  0.785704   0.232692   0.076882)
  34:      1428.19   11.782674  ( -0.567062   2.593450  -2.176036)
  35:      1428.45    0.402692  ( -0.149085   0.309975   0.533274)
  36:      1429.33    0.003728  ( -0.013301   0.051006  -0.030811)
  37:      1436.93    1.083734  ( -0.991292  -0.302065  -0.099148)
  38:      1443.05    4.317442  (  0.529597  -1.232344  -1.586914)
  39:      2937.00    6.105596  ( -0.627463   1.454168   1.896650)
  40:      2946.08    0.135855  (  0.358587   0.084856   0.008369)
  41:      2952.53   80.095449  ( -2.273402   5.281083   6.858372)
  42:      2956.73   43.987582  ( -6.325969  -1.896980  -0.609228)
  43:      2957.78   29.361631  ( -1.349585   3.205164   4.155379)
  44:      2968.91    0.163939  (  0.071884  -0.312519   0.247192)
  45:      2985.37    0.000105  (  0.000003  -0.007837   0.006638)
  46:      3000.45   51.729462  (  1.182364  -5.429289   4.566650)
  47:      3037.32    0.000601  ( -0.015651  -0.013676  -0.013005)
  48:      3038.18   90.756663  ( -1.577108   7.165622  -6.076451)
  49:      3044.44   24.758441  ( -4.633659  -1.660195  -0.728968)
  50:      3044.63   38.617752  (  1.856864  -3.606988  -4.707382)

The first frequency considered to be a vibration is 6
The total number of vibrations considered is 45


--------------------------
THERMOCHEMISTRY AT 298.15K
--------------------------

Temperature         ... 298.15 K
Pressure            ... 1.00 atm
Total Mass          ... 72.15 AMU

Throughout the following assumptions are being made:
  (1) The electronic state is orbitally nondegenerate
  (2) There are no thermally accessible electronically excited states
  (3) Hindered rotations indicated by low frequency modes are not
      treated as such but are treated as vibrations and this may
      cause some error
  (4) All equations used are the standard statistical mechanics
      equations for an ideal gas
  (5) All vibrations are strictly harmonic

freq.     112.31  E(vib)   ...       0.45 
freq.     116.84  E(vib)   ...       0.44 
freq.     178.36  E(vib)   ...       0.37 
freq.     247.03  E(vib)   ...       0.31 
freq.     255.22  E(vib)   ...       0.30 
freq.     393.60  E(vib)   ...       0.20 
freq.     395.09  E(vib)   ...       0.20 
freq.     723.55  E(vib)   ...       0.06 
freq.     749.52  E(vib)   ...       0.06 
freq.     843.14  E(vib)   ...       0.04 
freq.     858.25  E(vib)   ...       0.04 
freq.     916.07  E(vib)   ...       0.03 
freq.     963.13  E(vib)   ...       0.03 
freq.    1016.88  E(vib)   ...       0.02 
freq.    1041.53  E(vib)   ...       0.02 
freq.    1064.43  E(vib)   ...       0.02 
freq.    1127.90  E(vib)   ...       0.01 
freq.    1157.36  E(vib)   ...       0.01 
freq.    1217.83  E(vib)   ...       0.01 
freq.    1240.42  E(vib)   ...       0.01 
freq.    1278.57  E(vib)   ...       0.01 
freq.    1283.56  E(vib)   ...       0.01 
freq.    1316.73  E(vib)   ...       0.01 
freq.    1353.99  E(vib)   ...       0.01 
freq.    1360.27  E(vib)   ...       0.01 
freq.    1360.79  E(vib)   ...       0.01 
freq.    1418.65  E(vib)   ...       0.00 
freq.    1418.99  E(vib)   ...       0.00 
freq.    1428.19  E(vib)   ...       0.00 
freq.    1428.45  E(vib)   ...       0.00 
freq.    1429.33  E(vib)   ...       0.00 
freq.    1436.93  E(vib)   ...       0.00 
freq.    1443.05  E(vib)   ...       0.00 
freq.    2937.00  E(vib)   ...       0.00 
freq.    2946.08  E(vib)   ...       0.00 
freq.    2952.53  E(vib)   ...       0.00 
freq.    2956.73  E(vib)   ...       0.00 
freq.    2957.78  E(vib)   ...       0.00 
freq.    2968.91  E(vib)   ...       0.00 
freq.    2985.37  E(vib)   ...       0.00 
freq.    3000.45  E(vib)   ...       0.00 
freq.    3037.32  E(vib)   ...       0.00 
freq.    3038.18  E(vib)   ...       0.00 
freq.    3044.44  E(vib)   ...       0.00 
freq.    3044.63  E(vib)   ...       0.00 

------------
INNER ENERGY
------------

The inner energy is: U= E(el) + E(ZPE) + E(vib) + E(rot) + E(trans)
    E(el)   - is the total energy from the electronic structure calculation
              = E(kin-el) + E(nuc-el) + E(el-el) + E(nuc-nuc)
    E(ZPE)  - the the zero temperature vibrational energy from the frequency calculation
    E(vib)  - the the finite temperature correction to E(ZPE) due to population
              of excited vibrational states
    E(rot)  - is the rotational thermal energy
    E(trans)- is the translational thermal energy

Summary of contributions to the inner energy U:
Electronic energy                ...   -197.58298075 Eh
Zero point energy                ...      0.15593000 Eh      97.85 kcal/mol
Thermal vibrational correction   ...      0.00430456 Eh       2.70 kcal/mol
Thermal rotational correction    ...      0.00141627 Eh       0.89 kcal/mol
Thermal translational correction ...      0.00141627 Eh       0.89 kcal/mol
-----------------------------------------------------------------------
Total thermal energy                   -197.41991364 Eh


Summary of corrections to the electronic energy:
(perhaps to be used in another calculation)
Total thermal correction                  0.00713711 Eh       4.48 kcal/mol
Non-thermal (ZPE) correction              0.15593000 Eh      97.85 kcal/mol
-----------------------------------------------------------------------
Total correction                          0.16306711 Eh     102.33 kcal/mol


--------
ENTHALPY
--------

The enthalpy is H = U + kB*T
                kB is Boltzmann's constant
Total free energy                 ...   -197.41991364 Eh 
Thermal Enthalpy correction       ...      0.00094421 Eh       0.59 kcal/mol
-----------------------------------------------------------------------
Total Enthalpy                    ...   -197.41896943 Eh


Note: Only C1 symmetry has been detected, increase convergence thresholds 
      if your molecule has a higher symmetry. Symmetry factor of 1.0 is   
      used for the rotational entropy correction. 
 

Note: Rotational entropy computed according to Herzberg 
Infrared and Raman Spectra, Chapter V,1, Van Nostrand Reinhold, 1945 
Point Group:  C1, Symmetry Number:   1  
Rotational constants in cm-1:     0.560156     0.063602     0.060388 

Vibrational entropy computed according to the QRRHO of S. Grimme
Chem.Eur.J. 2012 18 9955


-------
ENTROPY
-------

The entropy contributions are T*S = T*(S(el)+S(vib)+S(rot)+S(trans))
     S(el)   - electronic entropy
     S(vib)  - vibrational entropy
     S(rot)  - rotational entropy
     S(trans)- translational entropy
The entropies will be listed as mutliplied by the temperature to get
units of energy

Electronic entropy                ...      0.00000000 Eh      0.00 kcal/mol
Vibrational entropy               ...      0.00740811 Eh      4.65 kcal/mol
Rotational entropy                ...      0.01241021 Eh      7.79 kcal/mol
Translational entropy             ...      0.01840896 Eh     11.55 kcal/mol
-----------------------------------------------------------------------
Final entropy term                ...      0.03822728 Eh     23.99 kcal/mol

In case the symmetry of your molecule has not been determined correctly
or in case you have a reason to use a different symmetry number we print 
out the resulting rotational entropy values for sn=1,12 :
 --------------------------------------------------------
|  sn= 1 | S(rot)=       0.01241021 Eh      7.79 kcal/mol|
|  sn= 2 | S(rot)=       0.01175575 Eh      7.38 kcal/mol|
|  sn= 3 | S(rot)=       0.01137292 Eh      7.14 kcal/mol|
|  sn= 4 | S(rot)=       0.01110130 Eh      6.97 kcal/mol|
|  sn= 5 | S(rot)=       0.01089061 Eh      6.83 kcal/mol|
|  sn= 6 | S(rot)=       0.01071846 Eh      6.73 kcal/mol|
|  sn= 7 | S(rot)=       0.01057292 Eh      6.63 kcal/mol|
|  sn= 8 | S(rot)=       0.01044684 Eh      6.56 kcal/mol|
|  sn= 9 | S(rot)=       0.01033563 Eh      6.49 kcal/mol|
|  sn=10 | S(rot)=       0.01023615 Eh      6.42 kcal/mol|
|  sn=11 | S(rot)=       0.01014616 Eh      6.37 kcal/mol|
|  sn=12 | S(rot)=       0.01006401 Eh      6.32 kcal/mol|
 --------------------------------------------------------


-------------------
GIBBS FREE ENERGY
-------------------

The Gibbs free energy is G = H - T*S

Total enthalpy                    ...   -197.41896943 Eh 
Total entropy correction          ...     -0.03822728 Eh    -23.99 kcal/mol
-----------------------------------------------------------------------
Final Gibbs free energy         ...   -197.45719670 Eh

For completeness - the Gibbs free energy minus the electronic energy
G-E(el)                           ...      0.12578404 Eh     78.93 kcal/mol


Timings for individual modules:

Sum of individual times         ...      107.879 sec (=   1.798 min)
GTO integral calculation        ...        2.785 sec (=   0.046 min)   2.6 %
SCF iterations                  ...       26.585 sec (=   0.443 min)  24.6 %
SCF Gradient evaluation         ...       13.118 sec (=   0.219 min)  12.2 %
Geometry relaxation             ...        0.401 sec (=   0.007 min)   0.4 %
Analytical frequency calculation...       64.990 sec (=   1.083 min)  60.2 %
                             ****ORCA TERMINATED NORMALLY****
TOTAL RUN TIME: 0 days 0 hours 1 minutes 49 seconds 128 msec
