
                                 *****************
                                 * O   R   C   A *
                                 *****************

           --- An Ab Initio, DFT and Semiempirical electronic structure package ---

                  #######################################################
                  #                        -***-                        #
                  #          Department of theory and spectroscopy      #
                  #               Directorship: Frank Neese             #
                  #        Max Planck Institute fuer Kohlenforschung    #
                  #                Kaiser Wilhelm Platz 1               #
                  #                 D-45470 Muelheim/Ruhr               #
                  #                      Germany                        #
                  #                                                     #
                  #                  All rights reserved                #
                  #                        -***-                        #
                  #######################################################


                         Program Version 4.2.1 -  RELEASE  -


 With contributions from (in alphabetic order):
   Daniel Aravena         : Magnetic Suceptibility
   Michael Atanasov       : Ab Initio Ligand Field Theory (pilot matlab implementation)
   Alexander A. Auer      : GIAO ZORA, VPT2
   Ute Becker             : Parallelization
   Giovanni Bistoni       : ED, misc. LED, open-shell LED, HFLD
   Martin Brehm           : Molecular dynamics
   Dmytro Bykov           : SCF Hessian
   Vijay G. Chilkuri      : MRCI spin determinant printing, contributions to CSF-ICE
   Dipayan Datta          : RHF DLPNO-CCSD density
   Achintya Kumar Dutta   : EOM-CC, STEOM-CC
   Dmitry Ganyushin       : Spin-Orbit,Spin-Spin,Magnetic field MRCI
   Miquel Garcia          : C-PCM Hessian, Gaussian charge scheme
   Yang Guo               : DLPNO-NEVPT2, CIM, IAO-localization
   Andreas Hansen         : Spin unrestricted coupled pair/coupled cluster methods
   Benjamin Helmich-Paris : CASSCF linear response (MC-RPA)
   Lee Huntington         : MR-EOM, pCC
   Robert Izsak           : Overlap fitted RIJCOSX, COSX-SCS-MP3, EOM
   Christian Kollmar      : KDIIS, OOCD, Brueckner-CCSD(T), CCSD density
   Simone Kossmann        : Meta GGA functionals, TD-DFT gradient, OOMP2, MP2 Hessian
   Martin Krupicka        : AUTO-CI
   Lucas Lang             : DCDCAS
   Dagmar Lenk            : GEPOL surface, SMD
   Dimitrios Liakos       : Extrapolation schemes; Compound Job, initial MDCI parallelization
   Dimitrios Manganas     : Further ROCIS development; embedding schemes
   Dimitrios Pantazis     : SARC Basis sets
   Taras Petrenko         : DFT Hessian,TD-DFT gradient, ASA, ECA, R-Raman, ABS, FL, XAS/XES, NRVS
   Peter Pinski           : DLPNO-MP2, DLPNO-MP2 Gradient
   Christoph Reimann      : Effective Core Potentials
   Marius Retegan         : Local ZFS, SOC
   Christoph Riplinger    : Optimizer, TS searches, QM/MM, DLPNO-CCSD(T), (RO)-DLPNO pert. Triples
   Tobias Risthaus        : Range-separated hybrids, TD-DFT gradient, RPA, STAB
   Michael Roemelt        : Original ROCIS implementation
   Masaaki Saitow         : Open-shell DLPNO-CCSD energy and density
   Barbara Sandhoefer     : DKH picture change effects
   Avijit Sen             : IP-ROCIS
   Kantharuban Sivalingam : CASSCF convergence, NEVPT2, FIC-MRCI
   Bernardo de Souza      : ESD, SOC TD-DFT
   Georgi Stoychev        : AutoAux, RI-MP2 NMR
   Willem Van den Heuvel  : Paramagnetic NMR
   Boris Wezisla          : Elementary symmetry handling
   Frank Wennmohs         : Technical directorship


 We gratefully acknowledge several colleagues who have allowed us to
 interface, adapt or use parts of their codes:
   Stefan Grimme, W. Hujo, H. Kruse,             : VdW corrections, initial TS optimization,
                  C. Bannwarth                     DFT functionals, gCP, sTDA/sTD-DF
   Ed Valeev, F. Pavosevic, A. Kumar             : LibInt (2-el integral package), F12 methods
   Garnet Chan, S. Sharma, J. Yang, R. Olivares  : DMRG
   Ulf Ekstrom                                   : XCFun DFT Library
   Mihaly Kallay                                 : mrcc  (arbitrary order and MRCC methods)
   Andreas Klamt, Michael Diedenhofen            : otool_cosmo (COSMO solvation model)
   Jiri Pittner, Ondrej Demel                    : Mk-CCSD
   Frank Weinhold                                : gennbo (NPA and NBO analysis)
   Christopher J. Cramer and Donald G. Truhlar   : smd solvation model
   Lars Goerigk                                  : TD-DFT with DH, B97 family of functionals
   V. Asgeirsson, H. Jonsson                     : NEB implementation
   FAccTs GmbH                                   : IRC, NEB, NEB-TS, Multilevel, MM, QM/MM, CI optimization
   S Lehtola, MJT Oliveira, MAL Marques          : LibXC Library


 Your calculation uses the libint2 library for the computation of 2-el integrals
 For citations please refer to: http://libint.valeyev.net

 Your ORCA version has been built with support for libXC version: 4.2.3
 For citations please refer to: https://tddft.org/programs/libxc/

 This ORCA versions uses:
   CBLAS   interface :  Fast vector & matrix operations
   LAPACKE interface :  Fast linear algebra routines
   SCALAPACK package :  Parallel linear algebra routines




***************************************
The coordinates will be read from file: init.xyz
***************************************


Your calculation utilizes the geometrical counterpoise correction gCP
Please cite in your paper:
H.Kruse, S. Grimme J.Chem.Phys., 136, (2012), 154101 
   

Your calculation utilizes the atom-pairwise dispersion correction
based on tight binding partial charges (D4)
Cite in your paper:
E.Caldeweyher, C.Bannwarth, S.Grimme, J.Chem.Phys., (2017), 147, 034112.
E.Caldeweyher, S.Ehlert, A.Hansen, H.Neugebauer, S.Grimme, J.Chem.Phys., (2018), in progress.
   

----- Orbital basis set information -----
Your calculation utilizes the basis: def2-SVP
   F. Weigend and R. Ahlrichs, Phys. Chem. Chem. Phys. 7, 3297 (2005).

----- AuxJ basis set information -----
Your calculation utilizes the auxiliary basis: def2/J
   F. Weigend, Phys. Chem. Chem. Phys. 8, 1057 (2006).

================================================================================
                                        WARNINGS
                       Please study these warnings very carefully!
================================================================================


WARNING: Geometry Optimization
  ===> : Switching off AutoStart
         For restart on a previous wavefunction, please use MOREAD

INFO   : the flag for use of LIBINT has been found!

================================================================================
                                       INPUT FILE
================================================================================
NAME = opt.inp
|  1> ! revPBE D4 gCP(DFT/TZ) def2-SVP Opt Freq TightOpt TightSCF Grid4 FinalGrid5 LargePrint
|  2> 
|  3> %pal
|  4>  nprocs 8
|  5> end
|  6> 
|  7> *xyzfile 0 1 init.xyz
|  8> 
|  9>                          ****END OF INPUT****
================================================================================

                       *****************************
                       * Geometry Optimization Run *
                       *****************************

Geometry optimization settings:
Update method            Update   .... BFGS
Choice of coordinates    CoordSys .... Z-matrix Internals
Initial Hessian          InHess   .... Almoef's Model

Convergence Tolerances:
Energy Change            TolE     ....  1.0000e-06 Eh
Max. Gradient            TolMAXG  ....  1.0000e-04 Eh/bohr
RMS Gradient             TolRMSG  ....  3.0000e-05 Eh/bohr
Max. Displacement        TolMAXD  ....  1.0000e-03 bohr
RMS Displacement         TolRMSD  ....  6.0000e-04 bohr
Strict Convergence                ....  False
------------------------------------------------------------------------------
                        ORCA OPTIMIZATION COORDINATE SETUP
------------------------------------------------------------------------------

The optimization will be done in new redundant internal coordinates
Making redundant internal coordinates   ...  (new redundants) done
Evaluating the initial hessian          ...  (Almloef) done
Evaluating the coordinates              ...  done
Calculating the B-matrix                .... done
Calculating the G-matrix                .... done
Diagonalizing the G-matrix              .... done
The first mode is                       ....    6
The number of degrees of freedom        ....   15

    -----------------------------------------------------------------
                    Redundant Internal Coordinates


    -----------------------------------------------------------------
         Definition                    Initial Value    Approx d2E/dq
    -----------------------------------------------------------------
      1. B(O   1,N   0)                  1.1935         1.031720   
      2. B(C   2,N   0)                  1.4420         0.462325   
      3. B(H   3,C   2)                  1.1106         0.333857   
      4. B(H   4,C   2)                  1.1110         0.333308   
      5. B(H   5,C   2)                  1.1106         0.333839   
      6. B(O   6,N   0)                  1.3155         0.658928   
      7. A(O   1,N   0,O   6)          119.7911         0.468708   
      8. A(C   2,N   0,O   6)          120.1947         0.408305   
      9. A(O   1,N   0,C   2)          120.0142         0.442410   
     10. A(N   0,C   2,H   4)          110.4336         0.329669   
     11. A(H   3,C   2,H   5)          109.2848         0.284040   
     12. A(H   4,C   2,H   5)          108.7952         0.283968   
     13. A(N   0,C   2,H   5)          109.7523         0.329756   
     14. A(H   3,C   2,H   4)          108.7960         0.283970   
     15. A(N   0,C   2,H   3)          109.7525         0.329759   
     16. D(H   3,C   2,N   0,O   6)    119.9403         0.018249   
     17. D(H   4,C   2,N   0,O   1)    179.9993         0.018249   
     18. D(H   4,C   2,N   0,O   6)     -0.0010         0.018249   
     19. D(H   5,C   2,N   0,O   1)     60.0591         0.018249   
     20. D(H   5,C   2,N   0,O   6)   -119.9412         0.018249   
     21. D(H   3,C   2,N   0,O   1)    -60.0593         0.018249   
    -----------------------------------------------------------------

Number of atoms                         .... 7
Number of degrees of freedom            .... 21

         *************************************************************
         *                GEOMETRY OPTIMIZATION CYCLE   1            *
         *************************************************************
---------------------------------
CARTESIAN COORDINATES (ANGSTROEM)
---------------------------------
  N     -8.816410    2.313290   -1.650770
  O     -8.311540    1.233370   -1.593740
  C     -8.904570    3.002490   -2.914310
  H     -7.885590    3.165450   -3.324860
  H     -9.400160    3.988390   -2.784640
  H     -9.496570    2.396070   -3.632120
  O     -9.291280    2.871310   -0.558200

----------------------------
CARTESIAN COORDINATES (A.U.)
----------------------------
  NO LB      ZA    FRAG     MASS         X           Y           Z
   0 N     7.0000    0    14.007  -16.660600    4.371485   -3.119503
   1 O     8.0000    0    15.999  -15.706534    2.330732   -3.011732
   2 C     6.0000    0    12.011  -16.827199    5.673884   -5.507248
   3 H     1.0000    0     1.008  -14.901606    5.981834   -6.283075
   4 H     1.0000    0     1.008  -17.763728    7.536965   -5.262207
   5 H     1.0000    0     1.008  -17.945917    4.527916   -6.863712
   6 O     8.0000    0    15.999  -17.557975    5.425990   -1.054845

--------------------------------
INTERNAL COORDINATES (ANGSTROEM)
--------------------------------
 N      0   0   0     0.000000000000     0.00000000     0.00000000
 O      1   0   0     1.193471132537     0.00000000     0.00000000
 C      1   2   0     1.441978556429   120.01422502     0.00000000
 H      3   1   2     1.110597814017   109.75249340   299.94065845
 H      3   1   2     1.111045708781   110.43364042   179.99932457
 H      3   1   2     1.110612629363   109.75231783    60.05911930
 O      1   2   3     1.315521585608   119.79107577   180.00035070

---------------------------
INTERNAL COORDINATES (A.U.)
---------------------------
 N      0   0   0     0.000000000000     0.00000000     0.00000000
 O      1   0   0     2.255333589236     0.00000000     0.00000000
 C      1   2   0     2.724944562637   120.01422502     0.00000000
 H      3   1   2     2.098725713424   109.75249340   299.94065845
 H      3   1   2     2.099572111864   110.43364042   179.99932457
 H      3   1   2     2.098753710370   109.75231783    60.05911930
 O      1   2   3     2.485975520061   119.79107577   180.00035070

---------------------
BASIS SET INFORMATION
---------------------
There are 4 groups of distinct atoms

 Group   1 Type N   : 7s4p1d contracted to 3s2p1d pattern {511/31/1}
 Group   2 Type O   : 7s4p1d contracted to 3s2p1d pattern {511/31/1}
 Group   3 Type C   : 7s4p1d contracted to 3s2p1d pattern {511/31/1}
 Group   4 Type H   : 4s1p contracted to 2s1p pattern {31/1}

Atom   0N    basis set group =>   1
Atom   1O    basis set group =>   2
Atom   2C    basis set group =>   3
Atom   3H    basis set group =>   4
Atom   4H    basis set group =>   4
Atom   5H    basis set group =>   4
Atom   6O    basis set group =>   2

-------------------------
BASIS SET IN INPUT FORMAT
-------------------------

 # Basis set for element : H 
 NewGTO H 
 S 3 
   1      13.0107010000      0.0334854848
   2       1.9622572000      0.2347218709
   3       0.4445379600      0.8137702853
 S 1 
   1       0.1219496200      1.0000000000
 P 1 
   1       0.8000000000      1.0000000000
  end;

 # Basis set for element : C 
 NewGTO C 
 S 5 
   1    1238.4016938000      0.0055173650
   2     186.2900499200      0.0410888285
   3      42.2511763460      0.1822538213
   4      11.6765579320      0.4682845944
   5       3.5930506482      0.4457581734
 S 1 
   1       0.4024514736      1.0000000000
 S 1 
   1       0.1309018267      1.0000000000
 P 3 
   1       9.4680970621      0.0568883320
   2       2.0103545142      0.3129405934
   3       0.5477100471      0.7606501651
 P 1 
   1       0.1526861379      1.0000000000
 D 1 
   1       0.8000000000      1.0000000000
  end;

 # Basis set for element : N 
 NewGTO N 
 S 5 
   1    1712.8415853000     -0.0054477995
   2     257.6481267700     -0.0406271746
   3      58.4582458530     -0.1811196225
   4      16.1983679050     -0.4684397556
   5       5.0052600809     -0.4461684629
 S 1 
   1       0.5873185657      1.0000000000
 S 1 
   1       0.1876459225      1.0000000000
 P 3 
   1      13.5714702330     -0.0588481170
   2       2.9257372874     -0.3202462476
   3       0.7992775075     -0.7532822652
 P 1 
   1       0.2195434803      1.0000000000
 D 1 
   1       1.0000000000      1.0000000000
  end;

 # Basis set for element : O 
 NewGTO O 
 S 5 
   1    2266.1767785000     -0.0053893504
   2     340.8701019100     -0.0402347214
   3      77.3631351670     -0.1800818421
   4      21.4796449400     -0.4682885766
   5       6.6589433124     -0.4469261716
 S 1 
   1       0.8097597567      1.0000000000
 S 1 
   1       0.2553077223      1.0000000000
 P 3 
   1      17.7215043170      0.0626302488
   2       3.8635505440      0.3333113849
   3       1.0480920883      0.7414863830
 P 1 
   1       0.2764154441      1.0000000000
 D 1 
   1       1.2000000000      1.0000000000
  end;

---------------------------------
AUXILIARY/J BASIS SET INFORMATION
---------------------------------
There are 4 groups of distinct atoms

 Group   1 Type N   : 12s5p4d2f1g contracted to 6s4p3d1f1g pattern {711111/2111/211/2/1}
 Group   2 Type O   : 12s5p4d2f1g contracted to 6s4p3d1f1g pattern {711111/2111/211/2/1}
 Group   3 Type C   : 12s5p4d2f1g contracted to 6s4p3d1f1g pattern {711111/2111/211/2/1}
 Group   4 Type H   : 5s2p1d contracted to 3s1p1d pattern {311/2/1}

Atom   0N    basis set group =>   1
Atom   1O    basis set group =>   2
Atom   2C    basis set group =>   3
Atom   3H    basis set group =>   4
Atom   4H    basis set group =>   4
Atom   5H    basis set group =>   4
Atom   6O    basis set group =>   2

-------------------------------------
AUXILIARY/J BASIS SET IN INPUT FORMAT
-------------------------------------

 # Auxiliary/J basis set for element : H 
 NewAuxJGTO H 
 S 3 
   1      15.6752927000      0.1007184237
   2       3.6063578000      0.3404257499
   3       1.2080016000      0.6491996172
 S 1 
   1       0.4726794000      1.0000000000
 S 1 
   1       0.2018100000      1.0000000000
 P 2 
   1       2.0281365000      0.5596620919
   2       0.5358730000      0.5596620919
 D 1 
   1       2.2165124000      1.0000000000
  end;

 # Auxiliary/J basis set for element : C 
 NewAuxJGTO C 
 S 7 
   1    1861.0916331000      0.0134602335
   2     642.9939764000      0.0299160374
   3     235.1105725000      0.1008649584
   4      90.7028894000      0.2370970548
   5      36.7794552000      0.3924037254
   6      15.6046273000      0.3195862154
   7       6.8907294000      0.0530104441
 S 1 
   1       3.1478850000     -1.0000000000
 S 1 
   1       1.4777287000      1.0000000000
 S 1 
   1       0.7076466000      1.0000000000
 S 1 
   1       0.3430122000      1.0000000000
 S 1 
   1       0.1669453000      1.0000000000
 P 2 
   1      13.5472892000     -0.6769313712
   2       5.4669419000     -0.3779500978
 P 1 
   1       2.1751721000      1.0000000000
 P 1 
   1       0.8582194000      1.0000000000
 P 1 
   1       0.3376720000      1.0000000000
 D 2 
   1       5.9287253000     -0.3533329857
   2       1.9809209000     -0.7456525731
 D 1 
   1       0.8055417000     -1.0000000000
 D 1 
   1       0.3531244000     -1.0000000000
 F 2 
   1       1.6755626000      0.6311076882
   2       0.5997536000      0.4968166032
 G 1 
   1       1.0024600000     -1.0000000000
  end;

 # Auxiliary/J basis set for element : N 
 NewAuxJGTO N 
 S 7 
   1    2542.9401785000      0.0128431329
   2    1029.5472946000      0.0206655120
   3     424.9053546000      0.0652200677
   4     178.4573708000      0.1617388940
   5      76.1362742000      0.3094256941
   6      32.9338653000      0.3918849307
   7      14.4155436000      0.1822470660
 S 1 
   1       6.3718891000     -1.0000000000
 S 1 
   1       2.8381742000      1.0000000000
 S 1 
   1       1.2711793000      1.0000000000
 S 1 
   1       0.5712407000      1.0000000000
 S 1 
   1       0.2569887000      1.0000000000
 P 2 
   1      17.8975990000     -1.0974070137
   2       6.5346319000      0.1380055963
 P 1 
   1       2.3523645000      1.0000000000
 P 1 
   1       0.8397377000      1.0000000000
 P 1 
   1       0.2989335000      1.0000000000
 D 2 
   1       7.6909870000      0.1770780943
   2       2.3044972000      0.8918319220
 D 1 
   1       0.8403987000      1.0000000000
 D 1 
   1       0.3303797000      1.0000000000
 F 2 
   1       2.3331076000      0.6223178877
   2       0.8446137000      0.5036714203
 G 1 
   1       1.4037700000     -1.0000000000
  end;

 # Auxiliary/J basis set for element : O 
 NewAuxJGTO O 
 S 7 
   1    2876.8216605000      0.0168151159
   2    1004.7443032000      0.0340137548
   3     369.7579954000      0.1194951309
   4     142.9442404000      0.2664627624
   5      57.8366425000      0.4202764046
   6      24.3864983000      0.2765077335
   7      10.6622662000      0.0057008815
 S 1 
   1       4.8070437000     -1.0000000000
 S 1 
   1       2.2210770000      1.0000000000
 S 1 
   1       1.0447795000      1.0000000000
 S 1 
   1       0.4968425000      1.0000000000
 S 1 
   1       0.2371384000      1.0000000000
 P 2 
   1      64.2613382000     -0.2731534179
   2      16.3006076000     -0.8168011598
 P 1 
   1       4.3550542000      1.0000000000
 P 1 
   1       1.2019554000      1.0000000000
 P 1 
   1       0.3354196000      1.0000000000
 D 2 
   1       9.2146611000     -0.4661230638
   2       2.8435251000     -0.6600908911
 D 1 
   1       0.9955759000     -1.0000000000
 D 1 
   1       0.3649441000     -1.0000000000
 F 2 
   1       2.6420115000      0.5931563945
   2       0.7345613000      0.5931563945
 G 1 
   1       1.3931000000     -1.0000000000
  end;



           ************************************************************
           *        Program running with 8 parallel MPI-processes     *
           *              working on a common directory               *
           ************************************************************
------------------------------------------------------------------------------
                           ORCA GTO INTEGRAL CALCULATION
                           -- RI-GTO INTEGRALS CHOSEN --
------------------------------------------------------------------------------

                         BASIS SET STATISTICS AND STARTUP INFO

Gaussian basis set:
 # of primitive gaussian shells          ...   63
 # of primitive gaussian functions       ...  117
 # of contracted shells                  ...   33
 # of contracted basis functions         ...   71
 Highest angular momentum                ...    2
 Maximum contraction depth               ...    5
Auxiliary gaussian basis set:
 # of primitive gaussian shells          ...  120
 # of primitive gaussian functions       ...  328
 # of contracted shells                  ...   75
 # of contracted aux-basis functions     ...  229
 Highest angular momentum                ...    4
 Maximum contraction depth               ...    7
Ratio of auxiliary to basis functions    ...  3.23
Integral package used                  ... LIBINT
 One Electron integrals                  ... done
 Ordering auxiliary basis shells         ... done
 Integral threshhold             Thresh  ...  2.500e-11
 Primitive cut-off               TCut    ...  2.500e-12
 Pre-screening matrix                    ... done
 Shell pair data                         ... 
 Ordering of the shell pairs             ... done (   0.000 sec) 558 of 561 pairs
 Determination of significant pairs      ... done (   0.000 sec)
 Creation of shell pair data             ... done (   0.000 sec)
 Storage of shell pair data              ... done (   0.004 sec)
 Shell pair data done in (   0.004 sec)
 Computing two index integrals           ... done
 Cholesky decomposition of the V-matrix  ... done


Timings:
 Total evaluation time                   ...   0.140 sec (  0.002 min)
 One electron matrix time                ...   0.008 sec (  0.000 min) =  5.9%
 Schwartz matrix evaluation time         ...   0.104 sec (  0.002 min) = 74.4%
 Two index repulsion integral time       ...   0.002 sec (  0.000 min) =  1.2%
 Cholesky decomposition of V             ...   0.002 sec (  0.000 min) =  1.5%
 Three index repulsion integral time     ...   0.000 sec (  0.000 min) =  0.0%



           ************************************************************
           *        Program running with 8 parallel MPI-processes     *
           *              working on a common directory               *
           ************************************************************
-------------------------------------------------------------------------------
                                 ORCA SCF
-------------------------------------------------------------------------------

------------
SCF SETTINGS
------------
Hamiltonian:
 Density Functional     Method          .... DFT(GTOs)
 Exchange Functional    Exchange        .... PBE
   PBE kappa parameter   XKappa         ....  1.245000
   PBE mue parameter    XMuePBE         ....  0.219520
 Correlation Functional Correlation     .... PBE
   PBE beta parameter  CBetaPBE         ....  0.066725
 LDA part of GGA corr.  LDAOpt          .... PW91-LDA
 Gradients option       PostSCFGGA      .... off
   Density functional embedding theory  .... OFF
   NL short-range parameter             ....  3.700000
 RI-approximation to the Coulomb term is turned on
   Number of auxiliary basis functions  .... 229


General Settings:
 Integral files         IntName         .... opt
 Hartree-Fock type      HFTyp           .... RHF
 Total Charge           Charge          ....    0
 Multiplicity           Mult            ....    1
 Number of Electrons    NEL             ....   32
 Basis Dimension        Dim             ....   71
 Nuclear Repulsion      ENuc            ....    123.8078957672 Eh

Convergence Acceleration:
 DIIS                   CNVDIIS         .... on
   Start iteration      DIISMaxIt       ....    12
   Startup error        DIISStart       ....  0.200000
   # of expansion vecs  DIISMaxEq       ....     5
   Bias factor          DIISBfac        ....   1.050
   Max. coefficient     DIISMaxC        ....  10.000
 Newton-Raphson         CNVNR           .... off
 SOSCF                  CNVSOSCF        .... on
   Start iteration      SOSCFMaxIt      ....   150
   Startup grad/error   SOSCFStart      ....  0.003300
 Level Shifting         CNVShift        .... on
   Level shift para.    LevelShift      ....    0.2500
   Turn off err/grad.   ShiftErr        ....    0.0010
 Zerner damping         CNVZerner       .... off
 Static damping         CNVDamp         .... on
   Fraction old density DampFac         ....    0.7000
   Max. Damping (<1)    DampMax         ....    0.9800
   Min. Damping (>=0)   DampMin         ....    0.0000
   Turn off err/grad.   DampErr         ....    0.1000
 Fernandez-Rico         CNVRico         .... off

SCF Procedure:
 Maximum # iterations   MaxIter         ....   125
 SCF integral mode      SCFMode         .... Direct
   Integral package                     .... LIBINT
 Reset frequency        DirectResetFreq ....    20
 Integral Threshold     Thresh          ....  2.500e-11 Eh
 Primitive CutOff       TCut            ....  2.500e-12 Eh

Convergence Tolerance:
 Convergence Check Mode ConvCheckMode   .... Total+1el-Energy
 Convergence forced     ConvForced      .... 0
 Energy Change          TolE            ....  1.000e-08 Eh
 1-El. energy change                    ....  1.000e-05 Eh
 Orbital Gradient       TolG            ....  1.000e-05
 Orbital Rotation angle TolX            ....  1.000e-05
 DIIS Error             TolErr          ....  5.000e-07


Diagonalization of the overlap matrix:
Smallest eigenvalue                        ... 6.954e-03
Time for diagonalization                   ...    0.002 sec
Threshold for overlap eigenvalues          ... 1.000e-08
Number of eigenvalues below threshold      ... 0
Time for construction of square roots      ...    0.002 sec
Total time needed                          ...    0.003 sec

-------------------
DFT GRID GENERATION
-------------------

General Integration Accuracy     IntAcc      ...  4.670
Radial Grid Type                 RadialGrid  ... Gauss-Chebyshev
Angular Grid (max. acc.)         AngularGrid ... Lebedev-302
Angular grid pruning method      GridPruning ... 3 (G Style)
Weight generation scheme         WeightScheme... Becke
Basis function cutoff            BFCut       ...    1.0000e-11
Integration weight cutoff        WCut        ...    1.0000e-14
Grids for H and He will be reduced by one unit

# of grid points (after initial pruning)     ...  35030 (   0.0 sec)
# of grid points (after weights+screening)   ...  33709 (   0.0 sec)
nearest neighbour list constructed           ...    0.0 sec
Grid point re-assignment to atoms done       ...    0.0 sec
Grid point division into batches done        ...    0.2 sec
Reduced shell lists constructed in    0.2 sec

Total number of grid points                  ...    33709
Total number of batches                      ...      532
Average number of points per batch           ...       63
Average number of grid points per atom       ...     4816
Average number of shells per batch           ...    29.59 (89.66%)
Average number of basis functions per batch  ...    65.29 (91.96%)
Average number of large shells per batch     ...    28.24 (95.43%)
Average number of large basis fcns per batch ...    63.32 (96.98%)
Maximum spatial batch extension              ...  13.51, 11.86, 12.09 au
Average spatial batch extension              ...   0.20,  0.18,  0.19 au

Time for grid setup =    0.200 sec

------------------------------
INITIAL GUESS: MODEL POTENTIAL
------------------------------
Loading Hartree-Fock densities                     ... done
Calculating cut-offs                               ... done
Setting up the integral package                    ... done
Initializing the effective Hamiltonian             ... done
Starting the Coulomb interaction                   ... done (   0.0 sec)
Reading the grid                                   ... done
Mapping shells                                     ... done
Starting the XC term evaluation                    ... done (   0.0 sec)
  promolecular density results
     # of electrons  =     31.998523649
     EX              =    -28.979486058
     EC              =     -1.069500462
     EX+EC           =    -30.048986520
Transforming the Hamiltonian                       ... done (   0.0 sec)
Diagonalizing the Hamiltonian                      ... done (   0.0 sec)
Back transforming the eigenvectors                 ... done (   0.0 sec)
Now organizing SCF variables                       ... done
                      ------------------
                      INITIAL GUESS DONE (   0.3 sec)
                      ------------------
----------------------
INITIAL GUESS ORBITALS
----------------------
                      0         1         2         3         4         5   
                 -18.94000 -18.91809 -14.18589 -10.07804  -1.16455  -0.99356
                   2.00000   2.00000   2.00000   2.00000   2.00000   2.00000
                  --------  --------  --------  --------  --------  --------
  0N   1s         0.000360  0.000226  0.988407  0.000247 -0.195171  0.041985
  0N   2s         0.000985  0.000982 -0.043885  0.000602 -0.402242  0.087522
  0N   3s        -0.012684 -0.009319  0.023981 -0.001297 -0.078732  0.031043
  0N   1pz       -0.000195 -0.000728 -0.000680  0.000521  0.039499 -0.125846
  0N   1px       -0.000600  0.000268  0.000380  0.000057  0.047150  0.118100
  0N   1py        0.001334 -0.000271 -0.000523 -0.000327 -0.114501 -0.197034
  0N   2pz       -0.001405 -0.008840 -0.007765 -0.006427  0.000277  0.034372
  0N   2px       -0.004309  0.003719 -0.001887 -0.000350 -0.006514 -0.033493
  0N   2py        0.009583 -0.004256  0.007051  0.003300  0.013528  0.056403
  0N   1dz2      -0.000845  0.000429  0.000197  0.001079  0.001381  0.015675
  0N   1dxz       0.000102 -0.000476  0.000362  0.000105  0.004015 -0.008396
  0N   1dyz      -0.000082  0.000668 -0.000150 -0.001113 -0.001174  0.008809
  0N   1dx2y2    -0.000734  0.000073  0.001104 -0.000330  0.012179  0.005216
  0N   1dxy      -0.000876 -0.000130  0.001446 -0.000121  0.015833  0.003286
  1O   1s         0.988835  0.001345  0.000278  0.000013 -0.199036 -0.146644
  1O   2s        -0.040618  0.000467  0.000586  0.000194 -0.405919 -0.309228
  1O   3s         0.030055 -0.001311  0.004487  0.001328 -0.185610 -0.143105
  1O   1pz        0.000188  0.000177  0.000028 -0.000218  0.004881  0.025598
  1O   1px        0.000991 -0.000127 -0.000779  0.000029  0.070293  0.029058
  1O   1py       -0.002150  0.000195  0.001619  0.000027 -0.149135 -0.071067
  1O   2pz       -0.000574  0.001197  0.000415  0.002362  0.001209  0.006015
  1O   2px       -0.003818  0.000141 -0.001981 -0.000631  0.018335  0.004422
  1O   2py        0.008223 -0.000774  0.003983  0.000377 -0.038874 -0.011661
  1O   1dz2       0.000131 -0.000163 -0.001053 -0.000116  0.007296  0.002649
  1O   1dxz      -0.000017 -0.000093 -0.000031 -0.000123 -0.000239 -0.001597
  1O   1dyz       0.000017  0.000354 -0.000019  0.000345  0.000738  0.003350
  1O   1dx2y2     0.000117  0.000114 -0.001274  0.000055  0.008409  0.003392
  1O   1dxy       0.000138  0.000042 -0.001576 -0.000031  0.010194  0.003181
  2C   1s        -0.000031 -0.000038 -0.000287 -0.987703  0.032066 -0.014148
  2C   2s         0.000639  0.000387  0.001348 -0.051544 -0.061688  0.029345
  2C   3s        -0.003024 -0.002074 -0.018361  0.031024 -0.002928 -0.000934
  2C   1pz       -0.000097  0.000215  0.000560  0.000552 -0.033065  0.021859
  2C   1px        0.000193 -0.000147  0.000044  0.000015 -0.004481 -0.008498
  2C   1py       -0.000366  0.000221 -0.000316 -0.000252  0.022586  0.009065
  2C   2pz       -0.000848 -0.000354 -0.006380 -0.003086 -0.003911  0.000061
  2C   2px       -0.000400 -0.000898  0.000014  0.000068 -0.000587  0.001549
  2C   2py        0.001175  0.002021  0.002520  0.001090  0.002792 -0.003265
  2C   1dz2      -0.000344  0.000327  0.000932  0.000359 -0.002766  0.003803
  2C   1dxz       0.000191 -0.000135  0.000164  0.000014 -0.000890 -0.001400
  2C   1dyz      -0.000242  0.000239 -0.001124 -0.000301  0.004479  0.000656
  2C   1dx2y2    -0.000174  0.000325 -0.000324 -0.000062  0.001576  0.000824
  2C   1dxy      -0.000134  0.000328 -0.000103 -0.000000  0.000738  0.000693
  3H   1s         0.000560 -0.000002  0.001082  0.003666 -0.008464  0.001626
  3H   2s         0.000574  0.000867  0.001323 -0.007300 -0.000966  0.000213
  3H   1pz        0.000234  0.000012  0.000164  0.000964 -0.001063  0.000666
  3H   1px       -0.000031  0.000074 -0.000055 -0.002550  0.001560 -0.000659
  3H   1py       -0.000290 -0.000083  0.000010 -0.000313  0.000558  0.000317
  4H   1s        -0.000254  0.000410  0.001138  0.003795 -0.007404  0.012169
  4H   2s        -0.000332 -0.001651  0.002190 -0.006487 -0.001518  0.003862
  4H   1pz       -0.000046  0.000078  0.000028 -0.000365 -0.000367  0.000415
  4H   1px       -0.000092  0.000004  0.000044  0.001278 -0.000756  0.000472
  4H   1py        0.000212 -0.000039 -0.000104 -0.002531  0.001728 -0.001154
  5H   1s         0.000560 -0.000002  0.001082  0.003666 -0.008464  0.001626
  5H   2s         0.000574  0.000867  0.001323 -0.007300 -0.000966  0.000214
  5H   1pz        0.000272  0.000001  0.000169  0.001723 -0.001552  0.000781
  5H   1px        0.000167  0.000017 -0.000025  0.001428 -0.001008 -0.000058
  5H   1py       -0.000196 -0.000110  0.000024  0.001587 -0.000668  0.000605
  6O   1s        -0.001231  0.988990  0.000249  0.000020 -0.095274  0.238659
  6O   2s         0.000455 -0.039649  0.000285  0.000174 -0.191740  0.496259
  6O   3s        -0.000292  0.026734 -0.000119  0.001437 -0.100756  0.265165
  6O   1pz       -0.000139  0.001350 -0.000742 -0.000178  0.059315 -0.105349
  6O   1px        0.000118 -0.000558  0.000350 -0.000028 -0.029947  0.039366
  6O   1py       -0.000191  0.000629 -0.000437  0.000129  0.039019 -0.040359
  6O   2pz        0.000906 -0.006820 -0.000964  0.000587  0.021386 -0.030426
  6O   2px        0.000126  0.002886  0.000924  0.000744 -0.010528  0.011582
  6O   2py       -0.000625 -0.003320 -0.001549 -0.001791  0.013504 -0.012101
  6O   1dz2      -0.000286  0.000146  0.000885 -0.000300 -0.002971  0.007159
  6O   1dxz      -0.000008 -0.000141 -0.001047 -0.000025  0.004042 -0.005366
  6O   1dyz       0.000224  0.000161  0.001293  0.000209 -0.005212  0.005497
  6O   1dx2y2     0.000034 -0.000018 -0.000192 -0.000059  0.000871  0.000001
  6O   1dxy      -0.000014 -0.000078 -0.000681 -0.000128  0.002842 -0.001990
                      6         7         8         9        10        11   
                  -0.80636  -0.63316  -0.55237  -0.54517  -0.52982  -0.46134
                   2.00000   2.00000   2.00000   2.00000   2.00000   2.00000
                  --------  --------  --------  --------  --------  --------
  0N   1s         0.091684  0.155837  0.010925 -0.014541 -0.000001  0.005236
  0N   2s         0.190952  0.367025  0.031146 -0.029370 -0.000001  0.009272
  0N   3s         0.127136  0.151261  0.009958 -0.027347 -0.000006  0.040798
  0N   1pz        0.216399  0.026245 -0.312258  0.176919  0.062294 -0.071858
  0N   1px        0.019495  0.003156 -0.033911 -0.152349  0.326640  0.058443
  0N   1py       -0.127239 -0.017087  0.195697  0.248346  0.156002 -0.093651
  0N   2pz       -0.103803 -0.012821  0.135493 -0.091427 -0.034754  0.009499
  0N   2px       -0.008863 -0.002570  0.009508  0.074457 -0.182238  0.008189
  0N   2py        0.060015  0.010501 -0.074010 -0.119389 -0.087033 -0.020959
  0N   1dz2       0.006335  0.000754  0.002749 -0.003401  0.000428  0.016721
  0N   1dxz       0.000648 -0.001556  0.003213 -0.000770  0.000573 -0.007518
  0N   1dyz      -0.005026  0.001675 -0.009863  0.003336  0.002035  0.008238
  0N   1dx2y2     0.000650 -0.001307 -0.003171 -0.000623 -0.007338  0.008172
  0N   1dxy       0.002123 -0.002215 -0.001108 -0.001685  0.005613  0.007190
  1O   1s        -0.080683 -0.124995 -0.074312 -0.084649 -0.000001  0.008883
  1O   2s        -0.175951 -0.264118 -0.150947 -0.171895 -0.000003  0.013428
  1O   3s        -0.096690 -0.245337 -0.193172 -0.244255 -0.000002 -0.001240
  1O   1pz       -0.058026 -0.020066  0.183843 -0.143688 -0.049725  0.009709
  1O   1px        0.006903 -0.091681 -0.147988 -0.110835 -0.260734  0.068775
  1O   1py        0.008720  0.199982  0.236460  0.289462 -0.124514 -0.147919
  1O   2pz       -0.020447 -0.009015  0.091282 -0.067893 -0.025186  0.004291
  1O   2px       -0.002574 -0.040363 -0.066867 -0.045450 -0.132067  0.042349
  1O   2py        0.013555  0.088115  0.103559  0.122280 -0.063068 -0.090408
  1O   1dz2       0.000617 -0.004827 -0.005677 -0.003659  0.000386  0.003397
  1O   1dxz       0.002638  0.000881 -0.005225  0.003584  0.002496 -0.001119
  1O   1dyz      -0.006176 -0.001562  0.011523 -0.008459 -0.002309  0.001453
  1O   1dx2y2    -0.001222 -0.005065 -0.003597 -0.006670  0.014139  0.002579
  1O   1dxy       0.000325 -0.005777 -0.007915 -0.005740 -0.011713  0.002699
  2C   1s        -0.222248  0.117544 -0.048185  0.000099 -0.000001 -0.000737
  2C   2s         0.467491 -0.250550  0.108179 -0.002215 -0.000001  0.002200
  2C   3s         0.023106 -0.075642  0.060110 -0.003038  0.000018  0.004445
  2C   1pz        0.079765  0.192599 -0.250626 -0.081584 -0.049799 -0.204669
  2C   1px        0.005753  0.012123 -0.020307  0.080438 -0.261090  0.205417
  2C   1py       -0.043896 -0.102308  0.142627 -0.135839 -0.124685 -0.348347
  2C   2pz       -0.004865  0.046068 -0.077202 -0.022291 -0.015727 -0.073469
  2C   2px       -0.000568 -0.000203 -0.010355  0.020916 -0.082462  0.072100
  2C   2py        0.003122 -0.017971  0.052511 -0.034893 -0.039383 -0.121613
  2C   1dz2       0.007800  0.008304 -0.010613 -0.004702 -0.001058  0.006115
  2C   1dxz       0.001151  0.001131 -0.001071  0.003444 -0.003829 -0.000003
  2C   1dyz      -0.008734 -0.008878  0.011187 -0.003560  0.000023  0.002427
  2C   1dx2y2    -0.002289 -0.002041  0.003522 -0.000170 -0.007167  0.010651
  2C   1dxy      -0.000539 -0.000198  0.001467  0.001075  0.006577  0.012579
  3H   1s         0.120111 -0.138283  0.109086  0.054699 -0.162565  0.173396
  3H   2s         0.019474 -0.021576  0.014450  0.006589 -0.032729  0.043377
  3H   1pz        0.006512 -0.001348 -0.000889 -0.000470 -0.007820 -0.001383
  3H   1px       -0.015085  0.014438 -0.009990 -0.002227  0.006141 -0.006987
  3H   1py       -0.002617 -0.000095  0.001445 -0.004807 -0.000526 -0.012662
  4H   1s         0.119009 -0.139287  0.112398 -0.107298  0.000007 -0.344716
  4H   2s         0.018277 -0.029956  0.005481 -0.011947 -0.000006 -0.091546
  4H   1pz       -0.001782  0.005575 -0.006940 -0.001179 -0.001400 -0.002307
  4H   1px        0.007336 -0.006625  0.004569 -0.002111 -0.007337 -0.006506
  4H   1py       -0.014647  0.011642 -0.006794  0.004889 -0.003504  0.014541
  5H   1s         0.120107 -0.138278  0.109075  0.054696  0.162566  0.173376
  5H   2s         0.019470 -0.021575  0.014445  0.006589  0.032726  0.043379
  5H   1pz        0.011064 -0.005612  0.001966  0.000922  0.009147  0.002627
  5H   1px        0.008788 -0.007920  0.004988  0.005069  0.000816  0.014048
  5H   1py        0.008784 -0.010773  0.008599 -0.001323  0.003850 -0.002618
  6O   1s        -0.082817 -0.103518 -0.053691  0.102047  0.000001 -0.017459
  6O   2s        -0.177422 -0.217830 -0.109563  0.210464  0.000002 -0.030610
  6O   3s        -0.108873 -0.197628 -0.137153  0.265321 -0.000000 -0.040909
  6O   1pz       -0.030171 -0.148157 -0.070146  0.305743 -0.031185 -0.124641
  6O   1px       -0.007771  0.059436  0.099605 -0.105233 -0.163530  0.083425
  6O   1py        0.028320 -0.065288 -0.180546  0.098252 -0.078099 -0.124935
  6O   2pz       -0.016531 -0.069470 -0.025690  0.137927 -0.015683 -0.069920
  6O   2px        0.000089  0.027375  0.046666 -0.046910 -0.082243  0.048605
  6O   2py        0.006415 -0.029580 -0.087455  0.043144 -0.039279 -0.073869
  6O   1dz2       0.003771  0.004470 -0.004192 -0.008758  0.002883  0.001929
  6O   1dxz       0.000213 -0.003582 -0.003388  0.005417  0.007995 -0.003125
  6O   1dyz      -0.002324  0.004024  0.007634 -0.004512  0.005039  0.004777
  6O   1dx2y2     0.000946  0.000248 -0.002621  0.000043 -0.006024  0.000159
  6O   1dxy       0.001770 -0.001109 -0.005528  0.001807  0.002728 -0.001352
                     12        13        14        15        16        17   
                  -0.44327  -0.35812  -0.35506  -0.33345  -0.15586   0.01381
                   2.00000   2.00000   2.00000   2.00000   0.00000   0.00000
                  --------  --------  --------  --------  --------  --------
  0N   1s        -0.000000 -0.013556  0.000000  0.000561 -0.000001  0.006210
  0N   2s        -0.000001 -0.026467 -0.000000  0.000486 -0.000003  0.050142
  0N   3s        -0.000003 -0.094315  0.000016  0.022452  0.000015 -0.120656
  0N   1pz       -0.033261 -0.123613  0.004953 -0.003160 -0.095484  0.046742
  0N   1px       -0.174366 -0.000875  0.025954  0.010774 -0.500648 -0.007756
  0N   1py       -0.083277  0.051201  0.012394 -0.021297 -0.239099 -0.002453
  0N   2pz        0.019520  0.010408 -0.004708 -0.018058  0.077355 -0.134946
  0N   2px        0.102337 -0.008586 -0.024693  0.032381  0.405658 -0.002556
  0N   2py        0.048866  0.013814 -0.011790 -0.060589  0.193729  0.059332
  0N   1dz2       0.004942 -0.014468 -0.005288  0.019830 -0.003974  0.006169
  0N   1dxz       0.015696 -0.015991 -0.013169 -0.009318 -0.012468 -0.003968
  0N   1dyz       0.004457  0.038720 -0.012379  0.010023 -0.003915  0.001822
  0N   1dx2y2     0.010601 -0.002153  0.026751  0.008846 -0.006875 -0.002744
  0N   1dxy      -0.012234 -0.014118 -0.017693  0.007370  0.008506 -0.004315
  1O   1s        -0.000000  0.006416 -0.000000 -0.009250  0.000000  0.016358
  1O   2s        -0.000000  0.019229 -0.000001 -0.026036  0.000001  0.045142
  1O   3s        -0.000005  0.038202 -0.000003 -0.049567 -0.000006  0.098252
  1O   1pz        0.051684 -0.488477  0.069600 -0.383703 -0.064687 -0.018136
  1O   1px        0.270994  0.045292  0.364877  0.109549 -0.339173  0.001480
  1O   1py        0.129415  0.100260  0.174255 -0.076165 -0.161982  0.004119
  1O   2pz        0.029940 -0.323588  0.045917 -0.240498 -0.056189  0.013111
  1O   2px        0.156989  0.027001  0.240726  0.075392 -0.294631 -0.024387
  1O   2py        0.074968  0.072706  0.114962 -0.061826 -0.140712  0.045797
  1O   1dz2       0.000184 -0.001338 -0.000575  0.003243 -0.000421 -0.001395
  1O   1dxz      -0.000486  0.004214 -0.002364  0.002873 -0.002230  0.000657
  1O   1dyz       0.002410 -0.008308  0.000603 -0.007608  0.001489 -0.002061
  1O   1dx2y2    -0.010841 -0.001915 -0.006853  0.000015 -0.010261 -0.002852
  1O   1dxy       0.008625  0.000181  0.005965  0.002238  0.008605 -0.002941
  2C   1s        -0.000000  0.041769 -0.000002 -0.003297 -0.000001 -0.147003
  2C   2s        -0.000001 -0.120910  0.000006  0.010142  0.000007  0.358134
  2C   3s         0.000017 -0.065384 -0.000006  0.018988 -0.000032  1.921602
  2C   1pz       -0.067122 -0.214436  0.000677  0.049990 -0.002460 -0.215363
  2C   1px       -0.351863 -0.014523  0.003513 -0.043896 -0.012909  0.005934
  2C   1py       -0.168061  0.116044  0.001677  0.071958 -0.006165  0.073498
  2C   2pz       -0.026838 -0.089319 -0.004669  0.007256  0.011928 -0.557745
  2C   2px       -0.140715  0.006689 -0.024465 -0.011574  0.062596  0.013525
  2C   2py       -0.067209  0.021681 -0.011684  0.021327  0.029891  0.194079
  2C   1dz2       0.005150 -0.005682 -0.000708 -0.003722  0.010548  0.010590
  2C   1dxz       0.014845 -0.001664 -0.001926  0.001186  0.031593  0.001323
  2C   1dyz       0.007816  0.006632 -0.001314 -0.002228  0.013527 -0.013728
  2C   1dx2y2    -0.004833 -0.000478  0.001865 -0.003999  0.002541 -0.006933
  2C   1dxy       0.000083 -0.002427 -0.000982 -0.004258 -0.009884 -0.005034
  3H   1s        -0.270312  0.029858  0.013595 -0.048008 -0.139672 -0.121475
  3H   2s        -0.058647  0.022151  0.031047 -0.015210 -0.177562 -1.131991
  3H   1pz       -0.008503 -0.004020  0.001891  0.002105  0.002728 -0.000989
  3H   1px        0.009742 -0.003090 -0.000328  0.002193  0.002496 -0.018060
  3H   1py       -0.002991  0.001369 -0.001119  0.002164 -0.002264 -0.000463
  4H   1s        -0.000011  0.050399  0.000001  0.089448  0.000005 -0.076118
  4H   2s        -0.000012  0.053493 -0.000001  0.004572  0.000014 -0.900215
  4H   1pz       -0.001998 -0.002756 -0.000063 -0.004610 -0.000603 -0.008247
  4H   1px       -0.010473  0.000760 -0.000334  0.001829 -0.003163  0.006950
  4H   1py       -0.005001 -0.000491 -0.000159 -0.001987 -0.001511 -0.011257
  5H   1s         0.270329  0.029859 -0.013598 -0.048014  0.139674 -0.121516
  5H   2s         0.058649  0.022161 -0.031049 -0.015216  0.177565 -1.132281
  5H   1pz        0.010521 -0.003053 -0.002042  0.001010 -0.002145  0.004582
  5H   1px        0.000844  0.001976 -0.000466 -0.003546  0.000564  0.011155
  5H   1py        0.008048  0.003789  0.000740 -0.000577  0.003726  0.013487
  6O   1s        -0.000001  0.004428  0.000000  0.004521  0.000000  0.021880
  6O   2s        -0.000001  0.018573  0.000002  0.013118  0.000001  0.056220
  6O   3s        -0.000000  0.008628 -0.000007  0.026263  0.000005  0.116014
  6O   1pz        0.031644 -0.357303 -0.094234  0.205554 -0.055391 -0.053770
  6O   1px        0.165949 -0.019854 -0.494157  0.198412 -0.290428  0.003331
  6O   1py        0.079242  0.184225 -0.236007 -0.497533 -0.138703  0.014496
  6O   2pz        0.019184 -0.237715 -0.062522  0.123963 -0.046165 -0.076779
  6O   2px        0.100608 -0.015256 -0.327882  0.133033 -0.242038  0.027376
  6O   2py        0.048041  0.126853 -0.156593 -0.328056 -0.115593 -0.026684
  6O   1dz2      -0.001910  0.006164  0.002967 -0.005411 -0.003423  0.001489
  6O   1dxz      -0.005208 -0.002212  0.008331 -0.001662 -0.009629 -0.001533
  6O   1dyz      -0.003519  0.001243  0.004971  0.005753 -0.005693  0.002154
  6O   1dx2y2     0.004903  0.001813 -0.005125 -0.001630  0.005706  0.000356
  6O   1dxy      -0.002545  0.001674  0.001939 -0.003633 -0.002071 -0.000273
                     18        19        20        21        22        23   
                   0.03093   0.05862   0.06212   0.14609   0.24413   0.34834
                   0.00000   0.00000   0.00000   0.00000   0.00000   0.00000
                  --------  --------  --------  --------  --------  --------
  0N   1s        -0.117739  0.152119 -0.000025  0.085160 -0.066352 -0.020008
  0N   2s        -0.264179  0.342363 -0.000059  0.226319 -0.119560 -0.127407
  0N   3s        -1.099405  1.578349 -0.000217  0.267631 -1.192844  0.443842
  0N   1pz        0.032777  0.172464  0.023399 -0.526143 -0.102363  0.211544
  0N   1px       -0.082677  0.019661  0.122661  0.111440  0.218474 -0.080423
  0N   1py        0.160018 -0.110006  0.058610 -0.023225 -0.416573  0.084485
  0N   2pz        0.024689 -0.420891 -0.039106  1.214226  0.065321 -0.198604
  0N   2px        0.116234 -0.032425 -0.204910 -0.172703 -0.805024  0.444454
  0N   2py       -0.253219  0.235936 -0.097861 -0.123294  1.659513 -0.851722
  0N   1dz2       0.028734  0.002945 -0.003226 -0.015579 -0.016220 -0.034874
  0N   1dxz      -0.014788 -0.002616 -0.010206  0.018386  0.007647  0.003120
  0N   1dyz       0.009175  0.010696 -0.003034 -0.018242 -0.022295  0.014730
  0N   1dx2y2    -0.000038  0.012619 -0.006332  0.010718 -0.030387 -0.003834
  0N   1dxy      -0.004060  0.012664  0.007512  0.019940 -0.031189 -0.007983
  1O   1s         0.001217 -0.033675  0.000006 -0.041584  0.139169  0.017747
  1O   2s        -0.005271 -0.084002  0.000011 -0.098517  0.320488  0.161768
  1O   3s         0.051637 -0.198536  0.000065 -0.319038  1.770814 -0.954832
  1O   1pz        0.073469  0.052473  0.017603 -0.136384 -0.082325 -0.098059
  1O   1px       -0.028574  0.065038  0.092257  0.073137 -0.145990  0.018327
  1O   1py        0.030478 -0.157116  0.044084 -0.098673  0.338564  0.000761
  1O   2pz        0.074799  0.075941  0.014966 -0.256618 -0.101475  0.110450
  1O   2px       -0.038879  0.072181  0.078405  0.141926 -0.466986  0.183166
  1O   2py        0.051524 -0.181452  0.037495 -0.194693  1.018352 -0.427528
  1O   1dz2       0.006382 -0.004431  0.000485 -0.003685  0.005396 -0.004716
  1O   1dxz      -0.000463  0.003290  0.001846 -0.007858 -0.004663  0.006308
  1O   1dyz      -0.004075 -0.005603 -0.000211  0.019478  0.007961 -0.006376
  1O   1dx2y2    -0.001221 -0.003726  0.004280  0.003415  0.004352  0.004205
  1O   1dxy      -0.000558 -0.002839 -0.003819 -0.001515  0.002868  0.007504
  2C   1s        -0.043122  0.094299 -0.000028 -0.023602 -0.019230  0.038903
  2C   2s         0.103315 -0.206540  0.000083 -0.002790  0.116272 -0.225881
  2C   3s         0.468114 -1.421312  0.000241  1.324668 -0.583936  0.438898
  2C   1pz        0.076526 -0.381866  0.080602 -0.089199  0.117873 -0.303795
  2C   1px        0.163970  0.104725  0.422480  0.063375  0.041473  0.104159
  2C   1py       -0.373992 -0.066718  0.201757 -0.097028 -0.133968 -0.097186
  2C   2pz        0.207020 -1.143258  0.187205  0.509749 -0.579399  0.869208
  2C   2px        0.375750  0.210534  0.981505  0.244323  0.291890 -0.622444
  2C   2py       -0.869584  0.016026  0.468692 -0.715090 -0.379623  0.958721
  2C   1dz2      -0.031666  0.021090  0.006659 -0.005532  0.041937  0.011321
  2C   1dxz      -0.001362  0.003426  0.017968 -0.009061 -0.021900  0.023439
  2C   1dyz       0.011950 -0.032908  0.012718  0.027731  0.027329 -0.014135
  2C   1dx2y2    -0.019044 -0.020519 -0.019274  0.011218  0.021922  0.062248
  2C   1dxy      -0.026682 -0.016853  0.010628  0.005962  0.017792  0.083411
  3H   1s        -0.084251 -0.109095 -0.183967  0.035820  0.074439  0.406047
  3H   2s        -0.560434 -0.216257 -1.436326 -0.552048 -0.257758 -0.094134
  3H   1pz        0.008099 -0.016029  0.011769  0.004687 -0.017667  0.033814
  3H   1px       -0.000113 -0.011409 -0.016629 -0.002499 -0.003857 -0.000681
  3H   1py       -0.017864 -0.000208  0.005874 -0.007454  0.002498  0.059472
  4H   1s         0.262650  0.106166  0.000013  0.027556 -0.190572 -0.737500
  4H   2s         1.179904  1.176215 -0.000071  0.353376  0.909802 -0.073051
  4H   1pz        0.011538 -0.022593  0.003450  0.009844  0.036164 -0.010160
  4H   1px       -0.008118 -0.004159  0.018081 -0.003409 -0.002105 -0.003971
  4H   1py        0.012389  0.017732  0.008633  0.003213 -0.010039  0.012567
  5H   1s        -0.084257 -0.109066  0.183933  0.035855  0.074483  0.407514
  5H   2s        -0.560649 -0.215974  1.436088 -0.551989 -0.257728 -0.094640
  5H   1pz        0.010245 -0.011636 -0.015258  0.006243 -0.015845  0.023469
  5H   1px        0.011121  0.011628 -0.001683  0.005674  0.005689 -0.054662
  5H   1py       -0.012501  0.010793 -0.014619 -0.003557  0.007056  0.033632
  6O   1s         0.047409 -0.028282  0.000011 -0.113918 -0.022390 -0.011718
  6O   2s         0.100441 -0.064723  0.000023 -0.264451 -0.050489 -0.084087
  6O   3s         0.353769 -0.161318  0.000076 -0.871090 -0.313764  0.312110
  6O   1pz       -0.237554  0.122861  0.005650  0.316321  0.144858 -0.020858
  6O   1px        0.095188 -0.041881  0.029851 -0.145413  0.012252  0.062100
  6O   1py       -0.104456  0.038644  0.014233  0.178158 -0.083506 -0.121838
  6O   2pz       -0.307026  0.162430  0.008390  0.541312  0.313193 -0.176993
  6O   2px        0.119073 -0.051126  0.044321 -0.283333 -0.006768  0.044362
  6O   2py       -0.126720  0.042192  0.021126  0.377108 -0.110889 -0.022041
  6O   1dz2      -0.009095  0.004114  0.000741  0.003052  0.017959 -0.001866
  6O   1dxz       0.004852 -0.002717  0.001845 -0.008035 -0.003514  0.011173
  6O   1dyz      -0.004997  0.003406  0.001743  0.012476 -0.005784 -0.019003
  6O   1dx2y2    -0.002900  0.001560 -0.003785 -0.001350 -0.001015  0.001719
  6O   1dxy      -0.001782  0.000770  0.002507 -0.005701 -0.000241  0.008158
                     24        25        26        27        28        29   
                   0.35420   0.37480   0.48246   0.51471   0.52410   0.53821
                   0.00000   0.00000   0.00000   0.00000   0.00000   0.00000
                  --------  --------  --------  --------  --------  --------
  0N   1s         0.000032  0.018476  0.152734  0.047611 -0.000083  0.144518
  0N   2s         0.000185  0.093160  0.872214  0.248562 -0.000511  0.884890
  0N   3s        -0.000378  1.299762 -1.676220 -0.385817  0.001024 -1.651701
  0N   1pz        0.041647 -0.412803 -0.021138  0.131562  0.011831 -0.081624
  0N   1px        0.219570 -0.079318 -0.032593 -0.163977  0.061405 -0.012147
  0N   1py        0.104796  0.330908  0.076739  0.290637  0.029484  0.058098
  0N   2pz       -0.030129 -0.570791 -0.419436  0.509573  0.060184 -0.521372
  0N   2px       -0.159179  0.206894 -0.007737 -0.431636  0.311748  0.008715
  0N   2py       -0.075055 -0.205225  0.183906  0.699750  0.149303  0.190423
  0N   1dz2      -0.005672  0.055690  0.007107  0.015467 -0.008236  0.009842
  0N   1dxz      -0.018269  0.006540 -0.004261 -0.002989 -0.024921 -0.005859
  0N   1dyz      -0.004916 -0.055405  0.005012 -0.000329 -0.010072  0.003530
  0N   1dx2y2    -0.013524 -0.010155  0.002638  0.006843 -0.004490 -0.001812
  0N   1dxy       0.015183  0.001892  0.001526  0.008183  0.009754 -0.003799
  1O   1s        -0.000024 -0.006068  0.031935 -0.049298 -0.000060  0.043118
  1O   2s        -0.000176  0.048251  0.155734 -0.186482 -0.000257  0.195932
  1O   3s         0.000875 -0.492241  0.341143  0.561678  0.000090  0.355909
  1O   1pz       -0.001822 -0.172337  0.021171  0.071941 -0.007564  0.071450
  1O   1px       -0.010021  0.091776  0.057084  0.036605 -0.039707  0.029120
  1O   1py       -0.004813 -0.123346 -0.127997 -0.105299 -0.018944 -0.089569
  1O   2pz        0.008356  0.030574  0.103463 -0.068350 -0.005006  0.045396
  1O   2px        0.044206  0.132177 -0.094596 -0.027307 -0.025690 -0.095904
  1O   2py        0.021560 -0.288982  0.156727  0.084510 -0.012369  0.182651
  1O   1dz2      -0.002387 -0.018523 -0.018562 -0.010241  0.000058 -0.021502
  1O   1dxz      -0.006162 -0.011041  0.002379  0.003152  0.000474  0.001038
  1O   1dyz      -0.005153  0.025815 -0.007965 -0.012858 -0.000637 -0.002330
  1O   1dx2y2     0.009916 -0.012296 -0.025862 -0.022445  0.003496 -0.023991
  1O   1dxy      -0.006256 -0.022895 -0.029755 -0.024218 -0.002849 -0.028991
  2C   1s        -0.000060 -0.142823  0.172261 -0.028771  0.000041 -0.172589
  2C   2s         0.000380  0.822825 -0.829474  0.206156 -0.000461  1.369798
  2C   3s        -0.000785 -1.998738  1.645206 -0.384339  0.001621 -4.006541
  2C   1pz       -0.036536  0.620687  0.187100  0.290459  0.155678 -0.503514
  2C   1px       -0.193493  0.066581  0.004015 -0.381396  0.813593  0.048065
  2C   1py       -0.092233 -0.387326 -0.082650  0.681298  0.389060  0.101665
  2C   2pz        0.197131 -0.868526 -0.028872 -0.614001 -0.341090  1.243260
  2C   2px        1.038853 -0.293974 -0.013830  0.898192 -1.781909 -0.118437
  2C   2py        0.494915  0.962306  0.039444 -1.632671 -0.852186 -0.251251
  2C   1dz2       0.024638 -0.030146 -0.037964  0.044478  0.034027  0.010802
  2C   1dxz       0.066624  0.009268 -0.003573  0.003216  0.097963  0.001071
  2C   1dyz       0.046647  0.016323  0.038584  0.000094  0.051665 -0.020627
  2C   1dx2y2    -0.069393  0.023230  0.010953  0.058997 -0.032193 -0.019110
  2C   1dxy       0.037659  0.025793  0.003605  0.073324  0.000864 -0.018410
  3H   1s        -0.730778  0.026670  0.607152  0.186949 -0.391114 -0.011605
  3H   2s         0.199752  0.342377 -0.714998 -0.755822  1.717704  1.471615
  3H   1pz        0.024202  0.036308 -0.015386 -0.035005  0.073757  0.015527
  3H   1px        0.008134  0.004458  0.087122  0.035323 -0.093587 -0.060324
  3H   1py        0.033744  0.009712  0.006302  0.040657 -0.024216 -0.008745
  4H   1s         0.000680 -0.277879  0.565010 -0.491014 -0.000480  0.086779
  4H   2s         0.000195  0.211818 -0.724661  2.079522  0.000975  0.865682
  4H   1pz        0.014168  0.008732  0.035778  0.029401  0.002807 -0.007812
  4H   1px        0.074248  0.001565 -0.038312  0.055389  0.014692  0.013418
  4H   1py        0.035433 -0.006795  0.065953 -0.127777  0.006923 -0.024978
  5H   1s         0.730027  0.026530  0.607320  0.186403  0.391054 -0.011206
  5H   2s        -0.199452  0.342493 -0.715736 -0.753662 -1.719938  1.469660
  5H   1pz       -0.015536  0.031481 -0.041736 -0.049371 -0.101315  0.033982
  5H   1px        0.037635 -0.020893 -0.050814 -0.040633 -0.050547  0.036951
  5H   1py       -0.012007 -0.002380 -0.059584  0.004400 -0.044596  0.037690
  6O   1s         0.000014  0.014286  0.046021  0.006629 -0.000026  0.044555
  6O   2s         0.000087  0.058821  0.175778  0.038214 -0.000089  0.179071
  6O   3s        -0.000261  0.141561  0.379689 -0.404972 -0.000567  0.401375
  6O   1pz       -0.009234 -0.037925  0.086582 -0.067198  0.015627  0.110924
  6O   1px       -0.048561 -0.056695 -0.023208  0.044039  0.082632  0.005404
  6O   1py       -0.023035  0.133878  0.014062 -0.065479  0.039451 -0.055474
  6O   2pz        0.011817 -0.082150 -0.222530  0.188608 -0.018948 -0.241972
  6O   2px        0.061196  0.020196  0.126135 -0.073999 -0.101096  0.117578
  6O   2py        0.029266 -0.009508 -0.175307  0.079771 -0.048053 -0.149731
  6O   1dz2       0.000692 -0.014215  0.020247 -0.019977  0.002740  0.021976
  6O   1dxz       0.001225 -0.011181 -0.017237  0.008450  0.008485 -0.018946
  6O   1dyz       0.002656  0.025869  0.018174 -0.005033  0.003166  0.019409
  6O   1dx2y2    -0.008586 -0.007950 -0.002143 -0.003485  0.002510 -0.003604
  6O   1dxy       0.006414 -0.017550 -0.009176 -0.002069 -0.004078 -0.011495
                     30        31        32        33        34        35   
                   0.63837   0.67221   0.67859   0.76347   0.79444   0.84777
                   0.00000   0.00000   0.00000   0.00000   0.00000   0.00000
                  --------  --------  --------  --------  --------  --------
  0N   1s         0.049795  0.000000 -0.013812 -0.020439  0.048172 -0.000011
  0N   2s         0.406301  0.000005 -0.158749 -0.268720  0.488191 -0.000093
  0N   3s        -1.961468 -0.000023  0.706850 -0.036049  0.173679  0.000457
  0N   1pz       -0.107672 -0.136392  0.398180 -0.071087 -0.166629  0.009975
  0N   1px       -0.207624 -0.715010 -0.242675  0.061383  0.091587  0.052355
  0N   1py        0.477641 -0.341534  0.348996 -0.100128 -0.125259  0.025016
  0N   2pz        0.308166 -0.189186  0.954079 -0.170016  0.069921  0.035698
  0N   2px       -0.485700 -0.991454 -0.791823  0.043799  0.235387  0.187011
  0N   2py        0.893756 -0.473671  1.276823 -0.023778 -0.520858  0.089296
  0N   1dz2       0.008866  0.003447  0.014002  0.049606  0.038449 -0.011796
  0N   1dxz       0.004128  0.011241 -0.005701 -0.013072 -0.042593 -0.035517
  0N   1dyz      -0.005413  0.002506  0.004540  0.024377  0.035429 -0.014708
  0N   1dx2y2     0.013697  0.010419  0.004830  0.053132 -0.033514 -0.004907
  0N   1dxy       0.018772 -0.010981  0.004180  0.058179 -0.055250  0.012720
  1O   1s         0.026174 -0.000001  0.009749  0.153810 -0.006553  0.000007
  1O   2s         0.137855 -0.000010  0.045853  0.720953  0.008622  0.000050
  1O   3s         0.834480 -0.000070  0.683357 -0.576980 -0.478129 -0.000181
  1O   1pz        0.254146  0.056590 -0.269822  0.096293  0.297836 -0.046281
  1O   1px        0.045721  0.296727  0.101585  0.275084 -0.171727 -0.242974
  1O   1py       -0.197207  0.141727 -0.104915 -0.614415  0.240648 -0.116029
  1O   2pz       -0.275562 -0.020986  0.017659 -0.063827 -0.299971  0.048551
  1O   2px       -0.139176 -0.110127 -0.143447 -0.426348  0.305585  0.255032
  1O   2py        0.401485 -0.052627  0.293304  0.918166 -0.520067  0.121710
  1O   1dz2      -0.030702 -0.001849 -0.024719  0.012130 -0.001017 -0.004994
  1O   1dxz       0.000480 -0.007376  0.004167 -0.000720  0.002362 -0.014064
  1O   1dyz      -0.005960  0.001454 -0.006130 -0.000551 -0.003896 -0.008250
  1O   1dx2y2    -0.041742 -0.019614 -0.023927  0.010037 -0.000115  0.008070
  1O   1dxy      -0.050120  0.017232 -0.027598  0.012471  0.001099 -0.002813
  2C   1s         0.070602 -0.000001 -0.038543  0.007364  0.002815  0.000001
  2C   2s        -0.979887  0.000007  0.524380 -0.068510 -0.042730  0.000022
  2C   3s         3.563298 -0.000004 -1.646435 -0.007694  0.523331 -0.000182
  2C   1pz       -0.054115  0.007091 -0.054339  0.008559  0.078236 -0.026674
  2C   1px        0.095283  0.037132  0.094655 -0.059621  0.008478 -0.139840
  2C   1py       -0.177901  0.017737 -0.176445  0.121417 -0.048994 -0.066794
  2C   2pz        0.028613  0.075270 -0.131483 -0.054665  0.085800  0.058886
  2C   2px       -0.048326  0.394510  0.133578  0.039813 -0.120943  0.309142
  2C   2py        0.089853  0.188459 -0.227216 -0.061541  0.218984  0.147709
  2C   1dz2       0.032567  0.000264  0.052872 -0.070278 -0.055045  0.013717
  2C   1dxz      -0.028941 -0.006653 -0.055933  0.046883  0.045903  0.047421
  2C   1dyz       0.018019  0.015965  0.054102 -0.046612 -0.056014  0.004384
  2C   1dx2y2    -0.025764 -0.078196 -0.028932 -0.006104 -0.008086  0.069518
  2C   1dxy      -0.039729  0.062998 -0.055763  0.009496  0.009260 -0.066364
  3H   1s        -0.503381 -0.188165  0.105780 -0.006341  0.011230  0.014484
  3H   2s        -0.447373  0.082316  0.392115 -0.041939 -0.055556 -0.286914
  3H   1pz       -0.056892 -0.062817 -0.104030  0.057237  0.057267  0.071402
  3H   1px       -0.045166 -0.033271 -0.030757  0.023368  0.020121  0.047451
  3H   1py       -0.023224  0.103198 -0.056944  0.017938  0.041793 -0.066559
  4H   1s        -0.324622 -0.000010  0.487369 -0.086856 -0.011807  0.000026
  4H   2s        -0.955153 -0.000003  0.036874  0.133139 -0.324773 -0.000015
  4H   1pz        0.081051  0.019796  0.134221 -0.070347 -0.090174 -0.010285
  4H   1px       -0.011321  0.103873 -0.026864  0.015946  0.007687 -0.053934
  4H   1py       -0.008632  0.049613  0.002656 -0.005296  0.019934 -0.025757
  5H   1s        -0.503351  0.188183  0.105825 -0.006344  0.011230 -0.014436
  5H   2s        -0.447366 -0.082309  0.392023 -0.041939 -0.055557  0.286923
  5H   1pz       -0.036646  0.064049 -0.080562  0.044311  0.041890 -0.062559
  5H   1px        0.060978  0.039638  0.092291 -0.044409 -0.060548 -0.001141
  5H   1py        0.027458 -0.100153  0.001807 -0.014431  0.003258  0.088671
  6O   1s         0.004991  0.000009 -0.124571 -0.051161 -0.113584  0.000004
  6O   2s         0.009018  0.000041 -0.587883 -0.242702 -0.521523  0.000036
  6O   3s        -0.072305  0.000051 -0.433219  0.291834  0.504169 -0.000149
  6O   1pz        0.198296  0.043905 -0.279430 -0.203759 -0.466303  0.144514
  6O   1px        0.083182  0.230130  0.092823  0.023689  0.263142  0.757671
  6O   1py       -0.253396  0.109943 -0.082707  0.031761 -0.364830  0.361789
  6O   2pz       -0.099147 -0.006052  0.689566  0.224526  0.651892 -0.181059
  6O   2px       -0.022776 -0.031419 -0.234443 -0.044664 -0.376660 -0.949566
  6O   2py        0.087361 -0.015055  0.215496  0.003856  0.528432 -0.453379
  6O   1dz2      -0.000331 -0.002161 -0.038239 -0.006790  0.032412 -0.003510
  6O   1dxz       0.004304 -0.006432  0.032452 -0.005514 -0.024948 -0.009815
  6O   1dyz      -0.008891 -0.002875 -0.035226  0.013608  0.028355 -0.005950
  6O   1dx2y2    -0.001497  0.000003  0.002225 -0.002280  0.003669  0.006423
  6O   1dxy       0.000853  0.001602  0.015285 -0.006834 -0.005410 -0.002581
                     36        37        38        39        40        41   
                   0.87252   0.89094   0.95722   0.99945   1.12508   1.14047
                   0.00000   0.00000   0.00000   0.00000   0.00000   0.00000
                  --------  --------  --------  --------  --------  --------
  0N   1s         0.000006  0.107381 -0.005565 -0.106786  0.000006  0.040380
  0N   2s         0.000051  0.946826 -0.052032 -0.997609  0.000060  0.450152
  0N   3s        -0.000255 -4.431071  0.108757  4.446363  0.000311  1.447612
  0N   1pz       -0.044443 -0.055987 -0.284845 -0.443891 -0.069534  0.353751
  0N   1px       -0.233110  0.009908  0.073614 -0.089174 -0.364879 -0.047238
  0N   1py       -0.111337  0.001675 -0.040405  0.363988 -0.174260 -0.042183
  0N   2pz       -0.140049 -0.628245 -1.505062 -1.776733 -0.204476  2.394247
  0N   2px       -0.734614 -0.132340  0.520859 -0.348421 -1.073931  0.238718
  0N   2py       -0.350800  0.528148 -0.489629  1.439095 -0.513123 -1.455478
  0N   1dz2       0.012179  0.011294  0.002002 -0.134935 -0.049401 -0.042337
  0N   1dxz       0.035372 -0.023667 -0.033643 -0.014420 -0.148822  0.013180
  0N   1dyz       0.017898  0.030849  0.071151  0.118135 -0.061475 -0.037013
  0N   1dx2y2    -0.008525 -0.011159  0.013783  0.002496 -0.021236 -0.065807
  0N   1dxy      -0.002147 -0.024221 -0.004495 -0.027801  0.053808 -0.070742
  1O   1s        -0.000001 -0.050919 -0.000535  0.061638  0.000032  0.190925
  1O   2s        -0.000013 -0.373137  0.005273  0.452518  0.000227  1.349936
  1O   3s         0.000100  1.835740 -0.369261 -0.691270 -0.000572 -3.451975
  1O   1pz       -0.136371 -0.332234 -0.610185  0.058444 -0.022447 -0.214504
  1O   1px       -0.715032  0.061134  0.109279 -0.073150 -0.117521 -0.083180
  1O   1py       -0.341498  0.004694  0.014783  0.129830 -0.056073  0.259888
  1O   2pz        0.204040  0.631564  1.248298  0.299416  0.087422 -0.059264
  1O   2px        1.069899 -0.402778 -0.165374  0.181773  0.458505  0.724364
  1O   2py        0.511029  0.591091 -0.152123 -0.500187  0.218665 -1.493294
  1O   1dz2       0.002065  0.023456  0.008335 -0.038960 -0.004042 -0.028490
  1O   1dxz       0.007761 -0.005937  0.033413  0.029427 -0.008039 -0.012184
  1O   1dyz      -0.000666 -0.024023 -0.070267 -0.039782 -0.013657  0.028524
  1O   1dx2y2     0.017090 -0.032692 -0.001801 -0.015570  0.041513 -0.022288
  1O   1dxy      -0.015345 -0.035217  0.019073 -0.005965 -0.030561 -0.036049
  2C   1s         0.000000  0.055217  0.021813  0.027040  0.000002  0.009514
  2C   2s        -0.000009 -0.831603 -0.301988 -0.181812 -0.000034 -0.201899
  2C   3s         0.000152  3.026035 -0.208927 -3.626110  0.000406  2.818034
  2C   1pz        0.006274 -0.134189 -0.029088 -0.314628 -0.002899  0.167837
  2C   1px        0.032877  0.002389 -0.081814 -0.044692 -0.015332 -0.041121
  2C   1py        0.015695  0.048533  0.182942  0.219230 -0.007308  0.019081
  2C   2pz        0.041077  0.703243 -0.324949 -1.297966  0.130940  0.484168
  2C   2px        0.215084  0.031994  0.021581  0.107091  0.686379  0.290473
  2C   2py        0.102684 -0.347760  0.084574  0.294114  0.327666 -0.801905
  2C   1dz2      -0.025808  0.002606 -0.040294 -0.144337  0.069863  0.016691
  2C   1dxz      -0.084916  0.015739 -0.009249 -0.017943  0.230821  0.052316
  2C   1dyz      -0.017143 -0.038428  0.040913  0.166867  0.044455 -0.108310
  2C   1dx2y2    -0.086141 -0.011110 -0.005474  0.061533  0.242798  0.004046
  2C   1dxy       0.088771 -0.002415 -0.017962  0.032817 -0.248076  0.038046
  3H   1s        -0.019748 -0.331852 -0.079111  0.129443 -0.137310 -0.284806
  3H   2s        -0.131928 -0.300114 -0.010961  0.252799 -0.249725 -0.457938
  3H   1pz       -0.082214  0.021318  0.024688  0.098464  0.212766  0.083467
  3H   1px       -0.061589 -0.010280  0.027955  0.015653  0.148374  0.039642
  3H   1py        0.099910  0.018146 -0.062344 -0.081321 -0.278514 -0.077960
  4H   1s        -0.000015 -0.362922 -0.000642  0.214188 -0.000008 -0.065262
  4H   2s        -0.000000 -0.297732 -0.036546  0.704632 -0.000000 -0.050421
  4H   1pz        0.022235 -0.027417 -0.009724  0.020045 -0.035868 -0.281392
  4H   1px        0.116614  0.007158  0.027011 -0.000394 -0.187773  0.026818
  4H   1py        0.055698 -0.004057 -0.052659 -0.007164 -0.089676  0.056336
  5H   1s         0.019734 -0.331871 -0.079107  0.129458  0.137232 -0.284870
  5H   2s         0.131895 -0.300030 -0.010968  0.252765  0.249560 -0.458001
  5H   1pz        0.073296  0.020556  0.023824  0.099804 -0.195842  0.078000
  5H   1px        0.014837 -0.014162  0.023385  0.022634 -0.059882  0.010670
  5H   1py       -0.122226  0.016328 -0.064538 -0.078017  0.320714 -0.091904
  6O   1s        -0.000001 -0.057782 -0.029707  0.046525  0.000014  0.081422
  6O   2s        -0.000009 -0.397548 -0.202774  0.336438  0.000098  0.589884
  6O   3s         0.000026  1.459891  1.129762 -0.849186 -0.000310 -1.905197
  6O   1pz       -0.022807 -0.335485  0.219669 -0.210619 -0.038164 -0.067690
  6O   1px       -0.119478 -0.157288  0.169937 -0.027200 -0.200046  0.013599
  6O   1py       -0.057006  0.463502 -0.443534  0.141019 -0.095538 -0.001355
  6O   2pz        0.055584  0.072502 -0.633220  0.796561  0.101019  0.510899
  6O   2px        0.291367  0.462957 -0.071323  0.025328  0.529162 -0.378546
  6O   2py        0.139075 -0.998599  0.402199 -0.371084  0.252835  0.588374
  6O   1dz2       0.003465  0.047065 -0.000189  0.071196  0.016646 -0.030293
  6O   1dxz       0.010722 -0.015126 -0.020953 -0.000169  0.045243  0.006277
  6O   1dyz       0.003721 -0.011229  0.031317 -0.022523  0.031037  0.013872
  6O   1dx2y2     0.004447 -0.014762 -0.014391  0.039863 -0.044489  0.009640
  6O   1dxy      -0.006167 -0.017277 -0.028019  0.054871  0.023600  0.009228
                     42        43        44        45        46        47   
                   1.17595   1.36354   1.46104   1.51369   1.59833   1.61498
                   0.00000   0.00000   0.00000   0.00000   0.00000   0.00000
                  --------  --------  --------  --------  --------  --------
  0N   1s         0.018991  0.000000 -0.013967  0.000001 -0.013340 -0.000012
  0N   2s         0.093731  0.000008 -0.157671  0.000003 -0.069814 -0.000058
  0N   3s         1.114379 -0.000034 -1.337767 -0.000038 -0.173464 -0.000059
  0N   1pz        0.032719 -0.003526  0.108692 -0.001577 -0.112790  0.011391
  0N   1px        0.058291 -0.018504 -0.160120 -0.008361  0.019332  0.060197
  0N   1py       -0.135130 -0.008834  0.291883 -0.003980  0.004492  0.028754
  0N   2pz        1.621518 -0.010981  1.278822 -0.042174 -0.186626  0.033800
  0N   2px       -0.448629 -0.057741 -1.831885 -0.221794  0.103252  0.178342
  0N   2py        0.291809 -0.027567  3.325147 -0.105722 -0.141866  0.084954
  0N   1dz2       0.088023 -0.000640  0.031105 -0.084818  0.032628 -0.031616
  0N   1dxz      -0.069872 -0.001934  0.005325 -0.260159 -0.007720 -0.124439
  0N   1dyz       0.093912 -0.000804 -0.011448 -0.095952 -0.020357  0.021588
  0N   1dx2y2     0.031186 -0.000257  0.031698 -0.084586 -0.022372 -0.319005
  0N   1dxy       0.007145  0.000684  0.042670  0.131326 -0.023839  0.281260
  1O   1s        -0.034903  0.000003 -0.133077 -0.000004 -0.038735 -0.000013
  1O   2s        -0.229971  0.000019 -1.041619 -0.000033 -0.269169 -0.000086
  1O   3s         0.233943 -0.000017  4.194127  0.000168  0.360713  0.000026
  1O   1pz       -0.101070 -0.003893 -0.085257  0.002649  0.064525  0.004748
  1O   1px        0.069411 -0.020378  0.108873  0.013928  0.018278  0.024773
  1O   1py       -0.104979 -0.009725 -0.193916  0.006645 -0.064060  0.011802
  1O   2pz       -0.098300  0.008527 -0.224391  0.014399 -0.136751  0.014249
  1O   2px       -0.100348  0.044672 -0.788466  0.075536 -0.055060  0.074857
  1O   2py        0.249385  0.021323  1.740550  0.036157  0.169812  0.035773
  1O   1dz2      -0.011484  0.000375  0.000219 -0.016602 -0.017104  0.004751
  1O   1dxz       0.018610  0.001476 -0.022267 -0.042809 -0.003838  0.028448
  1O   1dyz      -0.009838 -0.000261  0.056230 -0.035764  0.035273 -0.023626
  1O   1dx2y2     0.029729  0.003802  0.022978  0.068509  0.027416  0.150093
  1O   1dxy       0.041412 -0.003354  0.011918 -0.043042  0.024882 -0.124812
  2C   1s         0.012352  0.000002 -0.010811  0.000002 -0.005278 -0.000004
  2C   2s        -0.149731 -0.000017  0.121567 -0.000024  0.031474  0.000033
  2C   3s         1.158920  0.000081 -0.444132  0.000095 -0.060492 -0.000121
  2C   1pz       -0.011263  0.000649 -0.071074 -0.012625 -0.133969  0.052018
  2C   1px        0.036296  0.003405  0.065227 -0.066204  0.117340  0.273110
  2C   1py       -0.071524  0.001616 -0.108178 -0.031632 -0.192537  0.130341
  2C   2pz        0.287843  0.002511 -0.389581  0.142605  0.746532 -0.094443
  2C   2px        0.010007  0.013201  0.521872  0.748001 -0.553903 -0.497635
  2C   2py       -0.135847  0.006260 -0.937294  0.357154  0.862269 -0.237160
  2C   1dz2       0.107980  0.002246 -0.148534  0.021887  0.112498  0.133851
  2C   1dxz      -0.064303  0.006994  0.165991  0.080131 -0.103603  0.381998
  2C   1dyz       0.071525  0.002396 -0.179598 -0.002278  0.007597  0.210390
  2C   1dx2y2     0.033481  0.002961  0.063536  0.157347 -0.189479 -0.162570
  2C   1dxy       0.016169 -0.004059  0.142599 -0.143414 -0.248676  0.031904
  3H   1s        -0.080513  0.001276 -0.079726 -0.224991  0.288690  0.316443
  3H   2s        -0.155824 -0.006793 -0.058982 -0.261993  0.154710 -0.068536
  3H   1pz       -0.115920  0.293149  0.211674 -0.487813 -0.232727 -0.207077
  3H   1px       -0.085956  0.040420  0.052283 -0.325177  0.216753  0.332955
  3H   1py        0.017349  0.516427  0.092872  0.020314 -0.394502  0.153331
  4H   1s        -0.115359  0.000022  0.359682  0.000024 -0.453551 -0.000192
  4H   2s        -0.089680 -0.000013  0.405619  0.000005 -0.245884 -0.000102
  4H   1pz        0.273239 -0.099766 -0.516521 -0.082848 -0.491042  0.020249
  4H   1px       -0.051178 -0.523120  0.004899 -0.434346  0.198233  0.107518
  4H   1py       -0.001968 -0.249832  0.196099 -0.207439 -0.219164  0.051237
  5H   1s        -0.080519 -0.001310 -0.079754  0.224961  0.288975 -0.316144
  5H   2s        -0.155783  0.006768 -0.059021  0.261919  0.154641  0.068739
  5H   1pz       -0.085831 -0.189688  0.170328  0.364614 -0.228188  0.317420
  5H   1px        0.071875  0.502028 -0.164391 -0.320998  0.241913  0.247261
  5H   1py        0.092725 -0.257319 -0.010598 -0.328898 -0.382532  0.123372
  6O   1s         0.204838 -0.000002  0.073195  0.000005  0.033011  0.000012
  6O   2s         1.423053 -0.000009  0.574747  0.000038  0.223052  0.000078
  6O   3s        -3.140149  0.000001 -2.222082 -0.000149 -0.194176  0.000025
  6O   1pz       -0.411042 -0.003574 -0.049325  0.004381 -0.101934 -0.000113
  6O   1px        0.143267 -0.018774  0.076525  0.022993  0.010086 -0.000347
  6O   1py       -0.135844 -0.008966 -0.140541  0.010973  0.019593 -0.000156
  6O   2pz        1.496207  0.007559  1.040787  0.006501  0.199906 -0.010255
  6O   2px       -0.652055  0.039675 -0.336938  0.033720 -0.004403 -0.053995
  6O   2py        0.767851  0.018952  0.289881  0.016139 -0.070574 -0.025850
  6O   1dz2       0.032979  0.001498  0.067302  0.010549  0.041517 -0.021370
  6O   1dxz      -0.053430  0.004251 -0.003505  0.025214 -0.014436 -0.061856
  6O   1dyz       0.070716  0.002425 -0.041629  0.026850 -0.011889 -0.032042
  6O   1dx2y2    -0.015344 -0.002157 -0.006341 -0.064219 -0.019814  0.017935
  6O   1dxy      -0.042759  0.000631  0.002022  0.044074 -0.023282  0.001360
                     48        49        50        51        52        53   
                   1.65395   1.70029   1.78405   1.92886   2.02448   2.12666
                   0.00000   0.00000   0.00000   0.00000   0.00000   0.00000
                  --------  --------  --------  --------  --------  --------
  0N   1s        -0.083371  0.000004 -0.026878  0.049718 -0.000003  0.020162
  0N   2s        -0.381837  0.000015 -0.193542  0.409508 -0.000016  0.114521
  0N   3s         0.141543  0.000008  0.690753 -1.310438  0.000028  0.028213
  0N   1pz       -0.424816  0.016969  0.088444  0.150360 -0.006501 -0.066119
  0N   1px       -0.002492  0.088881 -0.057452  0.022012 -0.034054  0.038417
  0N   1py        0.174861  0.042436  0.084978 -0.106140 -0.016257 -0.054048
  0N   2pz       -0.700240  0.034592  1.309339  0.749859 -0.078608 -0.393884
  0N   2px        0.301632  0.181202 -0.888764  0.241054 -0.412175  0.411854
  0N   2py       -0.351994  0.086537  1.338114 -0.804208 -0.196825 -0.705121
  0N   1dz2       0.094306 -0.136547  0.141244 -0.206787  0.133846 -0.363394
  0N   1dxz       0.004294 -0.362918 -0.128676 -0.074768  0.414357  0.208375
  0N   1dyz      -0.101621 -0.271511  0.184150  0.308935  0.143348 -0.228145
  0N   1dx2y2    -0.051169  0.450026  0.053143  0.049231  0.173847 -0.117272
  0N   1dxy      -0.037787 -0.262330  0.005101 -0.024231 -0.239851 -0.064160
  1O   1s         0.045160 -0.000002  0.031427  0.003281  0.000001 -0.016647
  1O   2s         0.345469 -0.000018  0.145962  0.061696  0.000005 -0.004928
  1O   3s        -0.894246  0.000030  0.615807 -0.460258 -0.000003 -0.726538
  1O   1pz       -0.088391 -0.011843 -0.054382  0.047366 -0.013189 -0.076376
  1O   1px       -0.014520 -0.062139 -0.048763  0.011234 -0.069149  0.081087
  1O   1py        0.065689 -0.029679  0.123832 -0.042437 -0.033022 -0.139291
  1O   2pz        0.349423 -0.018595 -0.125490 -0.058006  0.022641  0.225105
  1O   2px        0.120167 -0.097377 -0.055654  0.072851  0.118701  0.065202
  1O   2py       -0.391175 -0.046491  0.166642 -0.129377  0.056687 -0.226410
  1O   1dz2       0.033226 -0.026796  0.025221 -0.003103  0.036988 -0.115282
  1O   1dxz      -0.008983 -0.098745 -0.009282  0.090240  0.092704 -0.010951
  1O   1dyz      -0.022718  0.004372 -0.012954 -0.183069  0.085267  0.097624
  1O   1dx2y2    -0.029462 -0.200421 -0.023043 -0.021706 -0.180599  0.001000
  1O   1dxy      -0.031863  0.181866 -0.026422  0.029018  0.118495 -0.024173
  2C   1s        -0.016974  0.000001 -0.010332  0.000170  0.000002  0.019639
  2C   2s        -0.003487  0.000011  0.072505 -0.023749 -0.000000 -0.155666
  2C   3s        -0.143987 -0.000030  0.004046  0.866904 -0.000001  0.120271
  2C   1pz       -0.075667  0.025398 -0.152410  0.460625  0.065489 -0.060040
  2C   1px       -0.075035  0.133179  0.186857 -0.018702  0.343375  0.091825
  2C   1py        0.187262  0.063573 -0.330387 -0.144803  0.163996 -0.168303
  2C   2pz        0.719913 -0.057786 -0.328689  1.008918  0.186951 -0.059130
  2C   2px        0.098075 -0.303005  0.529511 -0.041842  0.980137  0.197429
  2C   2py       -0.492738 -0.144641 -0.977508 -0.315283  0.468085 -0.389725
  2C   1dz2       0.364615  0.050543 -0.410954 -0.240976  0.032483  0.377824
  2C   1dxz       0.035640  0.149447  0.187060 -0.061238  0.072235 -0.374210
  2C   1dyz      -0.337467  0.069011 -0.233151  0.346052  0.094098  0.399525
  2C   1dx2y2    -0.047171 -0.008628 -0.244242  0.115718 -0.254882 -0.105340
  2C   1dxy       0.029153 -0.030587 -0.222531  0.050445  0.181856 -0.273223
  3H   1s         0.095218  0.141660 -0.053695  0.038281 -0.253629 -0.051765
  3H   2s         0.060357 -0.026193 -0.352876  0.157707 -0.587859 -0.160942
  3H   1pz       -0.395676 -0.112044 -0.125749 -0.359080 -0.303826  0.217858
  3H   1px       -0.080272  0.160234  0.142782 -0.404922  0.280804  0.076136
  3H   1py        0.262215  0.140550  0.443771  0.128621 -0.236392  0.478794
  4H   1s         0.196408 -0.000030  0.115847 -0.032768  0.000011  0.157179
[...]
     20       0.000001  -0.000001   0.000018  -0.000002   0.000003   0.000023
                  6          7          8          9         10         11    
      0       0.000030   0.000001  -0.000002   0.000008  -0.000017   0.000035
      1       0.000001   0.000020   0.000019  -0.000017   0.000012   0.000031
      2      -0.000002   0.000019  -0.000006   0.000035   0.000031  -0.000036
      3       0.000013   0.000009  -0.000006   0.000013  -0.000009   0.000008
      4       0.000009  -0.000009   0.000018  -0.000009  -0.000027   0.000036
      5      -0.000006   0.000018   0.000003   0.000008   0.000036  -0.000017
      6      -0.000151  -0.000008  -0.000010  -0.000054  -0.000020   0.000065
      7      -0.000008  -0.000160   0.000051  -0.000020   0.000119   0.000007
      8      -0.000010   0.000051  -0.000232   0.000065   0.000007   0.000097
      9      -0.000054  -0.000020   0.000065   0.000243   0.000046  -0.000143
     10      -0.000020   0.000119   0.000007   0.000046  -0.000153  -0.000029
     11       0.000065   0.000007   0.000097  -0.000143  -0.000029  -0.000128
     12       0.000081   0.000080   0.000013  -0.000092   0.000089   0.000055
     13       0.000080  -0.000036  -0.000025   0.000089   0.000016  -0.000031
     14       0.000013  -0.000025   0.000118   0.000055  -0.000031   0.000047
     15       0.000067  -0.000061  -0.000065  -0.000115  -0.000088  -0.000035
     16      -0.000061   0.000052  -0.000074  -0.000088   0.000027  -0.000017
     17      -0.000065  -0.000074   0.000044  -0.000035  -0.000017   0.000063
     18       0.000014  -0.000000   0.000006  -0.000003  -0.000002   0.000016
     19      -0.000000   0.000015   0.000003  -0.000002   0.000005   0.000003
     20       0.000006   0.000003  -0.000024   0.000016   0.000003  -0.000025
                 12         13         14         15         16         17    
      0       0.000019   0.000021  -0.000014   0.000018   0.000001  -0.000029
      1       0.000021  -0.000033   0.000042   0.000001   0.000027   0.000003
      2      -0.000014   0.000042  -0.000002  -0.000029   0.000003  -0.000060
      3       0.000000   0.000009  -0.000004  -0.000001   0.000015  -0.000026
      4       0.000009  -0.000018   0.000009   0.000015  -0.000001   0.000026
      5      -0.000004   0.000009  -0.000000  -0.000026   0.000026  -0.000030
      6       0.000081   0.000080   0.000013   0.000067  -0.000061  -0.000065
      7       0.000080  -0.000036  -0.000025  -0.000061   0.000052  -0.000074
      8       0.000013  -0.000025   0.000118  -0.000065  -0.000074   0.000044
      9      -0.000092   0.000089   0.000055  -0.000115  -0.000088  -0.000035
     10       0.000089   0.000016  -0.000031  -0.000088   0.000027  -0.000017
     11       0.000055  -0.000031   0.000047  -0.000035  -0.000017   0.000063
     12      -0.000094  -0.000191  -0.000041   0.000066  -0.000009  -0.000004
     13      -0.000191   0.000183   0.000061  -0.000009  -0.000113  -0.000093
     14      -0.000041   0.000061  -0.000128  -0.000004  -0.000093   0.000018
     15       0.000066  -0.000009  -0.000004  -0.000039   0.000142   0.000162
     16      -0.000009  -0.000113  -0.000093   0.000142   0.000003   0.000160
     17      -0.000004  -0.000093   0.000018   0.000162   0.000160  -0.000002
     18       0.000020   0.000002  -0.000004   0.000005  -0.000000  -0.000003
     19       0.000002   0.000001   0.000037  -0.000000   0.000004  -0.000006
     20      -0.000004   0.000037  -0.000052  -0.000003  -0.000006  -0.000032
                  18         19         20    
      0       0.000019   0.000000   0.000001
      1       0.000000   0.000019  -0.000001
      2       0.000001  -0.000001   0.000018
      3       0.000023  -0.000003  -0.000002
      4      -0.000003   0.000026   0.000003
      5      -0.000002   0.000003   0.000023
      6       0.000014  -0.000000   0.000006
      7      -0.000000   0.000015   0.000003
      8       0.000006   0.000003  -0.000024
      9      -0.000003  -0.000002   0.000016
     10      -0.000002   0.000005   0.000003
     11       0.000016   0.000003  -0.000025
     12       0.000020   0.000002  -0.000004
     13       0.000002   0.000001   0.000037
     14      -0.000004   0.000037  -0.000052
     15       0.000005  -0.000000  -0.000003
     16      -0.000000   0.000004  -0.000006
     17      -0.000003  -0.000006  -0.000032
     18      -0.000078   0.000003  -0.000014
     19       0.000003  -0.000071  -0.000039
     20      -0.000014  -0.000039   0.000093

done   (      0.0 sec)
Dipol derivatives                                ... done   (      0.1 sec)

-------
TIMINGS
-------

Total SCF Hessian time: 0 days 0 hours 0 min 11 sec 
                   F(y)            G[Q(x)]           CPSCF         Total
Table01         0.2  0.02         0.3  0.02         5.5  0.47        11.7 
Table01a        0.2  0.02,        0.3, 0.02,        5.5  0.47        11.7 
Table01b        0.2   2.1,        0.3,  2.5,        5.5  46.9        11.7 

Writing the Hessian file to the disk             ... done


Maximum memory used throughout the entire calculation: 132.5 MB

-----------------------
VIBRATIONAL FREQUENCIES
-----------------------

Scaling factor for frequencies =  1.000000000  (already applied!)

   0:         0.00 cm**-1
   1:         0.00 cm**-1
   2:         0.00 cm**-1
   3:         0.00 cm**-1
   4:         0.00 cm**-1
   5:         0.00 cm**-1
   6:       -22.31 cm**-1 ***imaginary mode***
   7:       470.16 cm**-1
   8:       602.18 cm**-1
   9:       641.71 cm**-1
  10:       900.14 cm**-1
  11:      1050.26 cm**-1
  12:      1073.54 cm**-1
  13:      1323.96 cm**-1
  14:      1379.12 cm**-1
  15:      1393.39 cm**-1
  16:      1402.63 cm**-1
  17:      1633.68 cm**-1
  18:      3004.92 cm**-1
  19:      3115.96 cm**-1
  20:      3144.78 cm**-1


------------
NORMAL MODES
------------

These modes are the Cartesian displacements weighted by the diagonal matrix
M(i,i)=1/sqrt(m[i]) where m[i] is the mass of the displaced atom
Thus, these vectors are normalized but *not* orthogonal

                  0          1          2          3          4          5    
      0       0.000000   0.000000   0.000000   0.000000   0.000000   0.000000
      1       0.000000   0.000000   0.000000   0.000000   0.000000   0.000000
      2       0.000000   0.000000   0.000000   0.000000   0.000000   0.000000
      3       0.000000   0.000000   0.000000   0.000000   0.000000   0.000000
      4       0.000000   0.000000   0.000000   0.000000   0.000000   0.000000
      5       0.000000   0.000000   0.000000   0.000000   0.000000   0.000000
      6       0.000000   0.000000   0.000000   0.000000   0.000000   0.000000
      7       0.000000   0.000000   0.000000   0.000000   0.000000   0.000000
      8       0.000000   0.000000   0.000000   0.000000   0.000000   0.000000
      9       0.000000   0.000000   0.000000   0.000000   0.000000   0.000000
     10       0.000000   0.000000   0.000000   0.000000   0.000000   0.000000
     11       0.000000   0.000000   0.000000   0.000000   0.000000   0.000000
     12       0.000000   0.000000   0.000000   0.000000   0.000000   0.000000
     13       0.000000   0.000000   0.000000   0.000000   0.000000   0.000000
     14       0.000000   0.000000   0.000000   0.000000   0.000000   0.000000
     15       0.000000   0.000000   0.000000   0.000000   0.000000   0.000000
     16       0.000000   0.000000   0.000000   0.000000   0.000000   0.000000
     17       0.000000   0.000000   0.000000   0.000000   0.000000   0.000000
     18       0.000000   0.000000   0.000000   0.000000   0.000000   0.000000
     19       0.000000   0.000000   0.000000   0.000000   0.000000   0.000000
     20       0.000000   0.000000   0.000000   0.000000   0.000000   0.000000
                  6          7          8          9         10         11    
      0       0.018169  -0.070239   0.321322   0.006623   0.027538  -0.005196
      1       0.008681   0.117902   0.153648  -0.022667  -0.212982   0.012184
      2       0.003458   0.072329   0.061415   0.020983   0.388840  -0.003618
      3       0.039827  -0.033971  -0.127206   0.062550   0.187132  -0.019723
      4       0.019040   0.141906  -0.060854  -0.021685  -0.305309   0.049230
      5       0.007638  -0.177150  -0.024394  -0.272744  -0.215449  -0.019933
      6       0.003173   0.095950  -0.002449   0.019531  -0.016908   0.074492
      7       0.001527  -0.167935  -0.001212  -0.215260   0.165806  -0.129293
      8       0.000594  -0.081971  -0.000395   0.436768  -0.326786  -0.065862
      9      -0.055385   0.178924  -0.213519   0.000726   0.004018  -0.035230
     10      -0.506740  -0.431658   0.244891  -0.214986   0.192328   0.385134
     11      -0.304709   0.068160  -0.493500   0.388162  -0.270394  -0.209321
     12       0.477711   0.142464  -0.324899   0.026340  -0.027458   0.003989
     13       0.228020  -0.056398  -0.155011  -0.212117   0.161682  -0.290832
     14       0.091015  -0.603693  -0.062461   0.394092  -0.259219   0.704283
     15      -0.506833   0.201472  -0.087820   0.044566  -0.066126  -0.207548
     16       0.238582  -0.420340  -0.389684  -0.193539   0.159198   0.302363
     17       0.197611   0.072006   0.436615   0.396531  -0.284038  -0.240585
     18      -0.052791  -0.009510  -0.112815  -0.087524  -0.192905  -0.016607
     19      -0.025258  -0.061821  -0.053864   0.242236   0.334962   0.012176
     20      -0.010098   0.204570  -0.021559  -0.147791   0.171616   0.056519
                 12         13         14         15         16         17    
      0      -0.130693   0.002843   0.007363   0.018027   0.021347   0.323291
      1      -0.062526  -0.024212  -0.092858  -0.084669   0.009970  -0.543938
      2      -0.024942   0.045641   0.193941   0.117122   0.004383  -0.330732
      3       0.023106  -0.014554  -0.051800  -0.044322  -0.003878  -0.140676
      4       0.011011   0.033298   0.116406   0.099232  -0.001551   0.288847
      5       0.004436  -0.007118  -0.020191  -0.016223  -0.000761   0.013455
      6       0.137255  -0.003502   0.025352  -0.024045   0.045712  -0.019872
      7       0.065751   0.053518  -0.055427   0.044065   0.022019   0.032836
      8       0.026223  -0.115794   0.005924   0.014421   0.008739   0.021746
      9      -0.111680   0.243351   0.012517  -0.137735   0.124911   0.067891
     10       0.144391  -0.181680   0.534897  -0.435408  -0.459675   0.033446
     11      -0.613100   0.513492   0.168657  -0.468636   0.117216   0.229141
     12      -0.325313  -0.058684   0.066530  -0.043672  -0.639926   0.027725
     13      -0.154859  -0.078691   0.067226  -0.025532  -0.305430   0.096757
     14      -0.062901   0.506346  -0.520281   0.312159  -0.120786  -0.388901
     15      -0.140170  -0.159142  -0.462222   0.552286  -0.235622  -0.133938
     16      -0.265704  -0.373994   0.308804  -0.110603   0.404216  -0.062443
     17       0.565572   0.436809   0.078102  -0.336395  -0.140774   0.190292
     18       0.024636   0.013086   0.050463   0.023224  -0.001835  -0.125030
     19       0.011768  -0.012312  -0.050890  -0.022176  -0.000971   0.158446
     20       0.004672  -0.037684  -0.136817  -0.066090  -0.000542   0.257849
                  18         19         20    
      0       0.000093   0.000200   0.001016
      1      -0.000305   0.000097  -0.001457
      2       0.000278   0.000039  -0.001671
      3       0.000096   0.000061  -0.000426
      4      -0.000205   0.000029   0.000800
      5       0.000010   0.000012   0.000229
      6       0.001352  -0.084273   0.044187
      7       0.013867  -0.040196  -0.077369
      8      -0.041784  -0.016048  -0.038239
      9      -0.566355   0.657402  -0.339207
     10      -0.062277   0.063793  -0.044837
     11       0.199022  -0.243297   0.116836
     12       0.233271  -0.011616  -0.383309
     13      -0.457276  -0.005802   0.752129
     14      -0.078876  -0.002273   0.127689
     15       0.316700   0.357572   0.196293
     16       0.359109   0.420588   0.210822
     17       0.367174   0.436644   0.219006
     18      -0.000160  -0.000186  -0.000482
     19       0.000170  -0.000090   0.000714
     20       0.000412  -0.000036   0.000737


-----------
IR SPECTRUM
-----------

 Mode    freq (cm**-1)   T**2         TX         TY         TZ
-------------------------------------------------------------------
   7:       470.16    0.547738  (  0.274420  -0.656531   0.203465)
   8:       602.18    3.604460  (  1.687144   0.807892   0.324521)
   9:       641.71   12.134970  (  0.202306  -1.650144   3.061220)
  10:       900.14   28.353956  (  0.308926  -2.515985   4.682770)
  11:      1050.26    4.632258  (  0.963229  -1.575231  -1.105935)
  12:      1073.54    1.722395  ( -1.167013  -0.557563  -0.222711)
  13:      1323.96   26.109773  ( -0.154468  -1.609674   4.847150)
  14:      1379.12   75.916961  ( -0.704913  -1.909352   8.471979)
  15:      1393.39   50.232998  (  2.287486  -5.976755   3.046113)
  16:      1402.63   11.920869  ( -3.063157  -1.484542  -0.577992)
  17:      1633.68  231.494845  (  6.899857 -11.680243  -6.889030)
  18:      3004.92    0.594486  ( -0.092120   0.443181  -0.624172)
  19:      3115.96    0.324840  ( -0.507103  -0.242009  -0.095490)
  20:      3144.78    1.061219  (  0.256597  -0.784619   0.616239)

The first frequency considered to be a vibration is 7
The total number of vibrations considered is 14


--------------------------
THERMOCHEMISTRY AT 298.15K
--------------------------

Temperature         ... 298.15 K
Pressure            ... 1.00 atm
Total Mass          ... 61.04 AMU

Throughout the following assumptions are being made:
  (1) The electronic state is orbitally nondegenerate
  (2) There are no thermally accessible electronically excited states
  (3) Hindered rotations indicated by low frequency modes are not
      treated as such but are treated as vibrations and this may
      cause some error
  (4) All equations used are the standard statistical mechanics
      equations for an ideal gas
  (5) All vibrations are strictly harmonic

freq.     470.16  E(vib)   ...       0.16 
freq.     602.18  E(vib)   ...       0.10 
freq.     641.71  E(vib)   ...       0.09 
freq.     900.14  E(vib)   ...       0.03 
freq.    1050.26  E(vib)   ...       0.02 
freq.    1073.54  E(vib)   ...       0.02 
freq.    1323.96  E(vib)   ...       0.01 
freq.    1379.12  E(vib)   ...       0.01 
freq.    1393.39  E(vib)   ...       0.00 
freq.    1402.63  E(vib)   ...       0.00 
freq.    1633.68  E(vib)   ...       0.00 
freq.    3004.92  E(vib)   ...       0.00 
freq.    3115.96  E(vib)   ...       0.00 
freq.    3144.78  E(vib)   ...       0.00 

------------
INNER ENERGY
------------

The inner energy is: U= E(el) + E(ZPE) + E(vib) + E(rot) + E(trans)
    E(el)   - is the total energy from the electronic structure calculation
              = E(kin-el) + E(nuc-el) + E(el-el) + E(nuc-nuc)
    E(ZPE)  - the the zero temperature vibrational energy from the frequency calculation
    E(vib)  - the the finite temperature correction to E(ZPE) due to population
              of excited vibrational states
    E(rot)  - is the rotational thermal energy
    E(trans)- is the translational thermal energy

Summary of contributions to the inner energy U:
Electronic energy                ...   -244.78344296 Eh
Zero point energy                ...      0.04815228 Eh      30.22 kcal/mol
Thermal vibrational correction   ...      0.00069237 Eh       0.43 kcal/mol
Thermal rotational correction    ...      0.00141627 Eh       0.89 kcal/mol
Thermal translational correction ...      0.00141627 Eh       0.89 kcal/mol
-----------------------------------------------------------------------
Total thermal energy                   -244.73176577 Eh


Summary of corrections to the electronic energy:
(perhaps to be used in another calculation)
Total thermal correction                  0.00352491 Eh       2.21 kcal/mol
Non-thermal (ZPE) correction              0.04815228 Eh      30.22 kcal/mol
-----------------------------------------------------------------------
Total correction                          0.05167719 Eh      32.43 kcal/mol


--------
ENTHALPY
--------

The enthalpy is H = U + kB*T
                kB is Boltzmann's constant
Total free energy                 ...   -244.73176577 Eh 
Thermal Enthalpy correction       ...      0.00094421 Eh       0.59 kcal/mol
-----------------------------------------------------------------------
Total Enthalpy                    ...   -244.73082156 Eh


Note: Only C1 symmetry has been detected, increase convergence thresholds 
      if your molecule has a higher symmetry. Symmetry factor of 1.0 is   
      used for the rotational entropy correction. 
 

Note: Rotational entropy computed according to Herzberg 
Infrared and Raman Spectra, Chapter V,1, Van Nostrand Reinhold, 1945 
Point Group:  C1, Symmetry Number:   1  
Rotational constants in cm-1:     0.402425     0.344673     0.192623 

Vibrational entropy computed according to the QRRHO of S. Grimme
Chem.Eur.J. 2012 18 9955


-------
ENTROPY
-------

The entropy contributions are T*S = T*(S(el)+S(vib)+S(rot)+S(trans))
     S(el)   - electronic entropy
     S(vib)  - vibrational entropy
     S(rot)  - rotational entropy
     S(trans)- translational entropy
The entropies will be listed as mutliplied by the temperature to get
units of energy

Electronic entropy                ...      0.00000000 Eh      0.00 kcal/mol
Vibrational entropy               ...      0.00092229 Eh      0.58 kcal/mol
Rotational entropy                ...      0.01122092 Eh      7.04 kcal/mol
Translational entropy             ...      0.01817211 Eh     11.40 kcal/mol
-----------------------------------------------------------------------
Final entropy term                ...      0.03031533 Eh     19.02 kcal/mol

In case the symmetry of your molecule has not been determined correctly
or in case you have a reason to use a different symmetry number we print 
out the resulting rotational entropy values for sn=1,12 :
 --------------------------------------------------------
|  sn= 1 | S(rot)=       0.01122092 Eh      7.04 kcal/mol|
|  sn= 2 | S(rot)=       0.01056647 Eh      6.63 kcal/mol|
|  sn= 3 | S(rot)=       0.01018363 Eh      6.39 kcal/mol|
|  sn= 4 | S(rot)=       0.00991201 Eh      6.22 kcal/mol|
|  sn= 5 | S(rot)=       0.00970132 Eh      6.09 kcal/mol|
|  sn= 6 | S(rot)=       0.00952918 Eh      5.98 kcal/mol|
|  sn= 7 | S(rot)=       0.00938363 Eh      5.89 kcal/mol|
|  sn= 8 | S(rot)=       0.00925755 Eh      5.81 kcal/mol|
|  sn= 9 | S(rot)=       0.00914634 Eh      5.74 kcal/mol|
|  sn=10 | S(rot)=       0.00904687 Eh      5.68 kcal/mol|
|  sn=11 | S(rot)=       0.00895688 Eh      5.62 kcal/mol|
|  sn=12 | S(rot)=       0.00887472 Eh      5.57 kcal/mol|
 --------------------------------------------------------


-------------------
GIBBS FREE ENERGY
-------------------

The Gibbs free energy is G = H - T*S

Total enthalpy                    ...   -244.73082156 Eh 
Total entropy correction          ...     -0.03031533 Eh    -19.02 kcal/mol
-----------------------------------------------------------------------
Final Gibbs free energy         ...   -244.76113688 Eh

For completeness - the Gibbs free energy minus the electronic energy
G-E(el)                           ...      0.02230607 Eh     14.00 kcal/mol


Timings for individual modules:

Sum of individual times         ...       50.954 sec (=   0.849 min)
GTO integral calculation        ...        3.894 sec (=   0.065 min)   7.6 %
SCF iterations                  ...       26.821 sec (=   0.447 min)  52.6 %
SCF Gradient evaluation         ...        8.044 sec (=   0.134 min)  15.8 %
Geometry relaxation             ...        0.235 sec (=   0.004 min)   0.5 %
Analytical frequency calculation...       11.960 sec (=   0.199 min)  23.5 %
                             ****ORCA TERMINATED NORMALLY****
TOTAL RUN TIME: 0 days 0 hours 0 minutes 51 seconds 904 msec
