
                                 *****************
                                 * O   R   C   A *
                                 *****************

           --- An Ab Initio, DFT and Semiempirical electronic structure package ---

                  #######################################################
                  #                        -***-                        #
                  #          Department of theory and spectroscopy      #
                  #               Directorship: Frank Neese             #
                  #        Max Planck Institute fuer Kohlenforschung    #
                  #                Kaiser Wilhelm Platz 1               #
                  #                 D-45470 Muelheim/Ruhr               #
                  #                      Germany                        #
                  #                                                     #
                  #                  All rights reserved                #
                  #                        -***-                        #
                  #######################################################


                         Program Version 4.2.1 -  RELEASE  -


 With contributions from (in alphabetic order):
   Daniel Aravena         : Magnetic Suceptibility
   Michael Atanasov       : Ab Initio Ligand Field Theory (pilot matlab implementation)
   Alexander A. Auer      : GIAO ZORA, VPT2
   Ute Becker             : Parallelization
   Giovanni Bistoni       : ED, misc. LED, open-shell LED, HFLD
   Martin Brehm           : Molecular dynamics
   Dmytro Bykov           : SCF Hessian
   Vijay G. Chilkuri      : MRCI spin determinant printing, contributions to CSF-ICE
   Dipayan Datta          : RHF DLPNO-CCSD density
   Achintya Kumar Dutta   : EOM-CC, STEOM-CC
   Dmitry Ganyushin       : Spin-Orbit,Spin-Spin,Magnetic field MRCI
   Miquel Garcia          : C-PCM Hessian, Gaussian charge scheme
   Yang Guo               : DLPNO-NEVPT2, CIM, IAO-localization
   Andreas Hansen         : Spin unrestricted coupled pair/coupled cluster methods
   Benjamin Helmich-Paris : CASSCF linear response (MC-RPA)
   Lee Huntington         : MR-EOM, pCC
   Robert Izsak           : Overlap fitted RIJCOSX, COSX-SCS-MP3, EOM
   Christian Kollmar      : KDIIS, OOCD, Brueckner-CCSD(T), CCSD density
   Simone Kossmann        : Meta GGA functionals, TD-DFT gradient, OOMP2, MP2 Hessian
   Martin Krupicka        : AUTO-CI
   Lucas Lang             : DCDCAS
   Dagmar Lenk            : GEPOL surface, SMD
   Dimitrios Liakos       : Extrapolation schemes; Compound Job, initial MDCI parallelization
   Dimitrios Manganas     : Further ROCIS development; embedding schemes
   Dimitrios Pantazis     : SARC Basis sets
   Taras Petrenko         : DFT Hessian,TD-DFT gradient, ASA, ECA, R-Raman, ABS, FL, XAS/XES, NRVS
   Peter Pinski           : DLPNO-MP2, DLPNO-MP2 Gradient
   Christoph Reimann      : Effective Core Potentials
   Marius Retegan         : Local ZFS, SOC
   Christoph Riplinger    : Optimizer, TS searches, QM/MM, DLPNO-CCSD(T), (RO)-DLPNO pert. Triples
   Tobias Risthaus        : Range-separated hybrids, TD-DFT gradient, RPA, STAB
   Michael Roemelt        : Original ROCIS implementation
   Masaaki Saitow         : Open-shell DLPNO-CCSD energy and density
   Barbara Sandhoefer     : DKH picture change effects
   Avijit Sen             : IP-ROCIS
   Kantharuban Sivalingam : CASSCF convergence, NEVPT2, FIC-MRCI
   Bernardo de Souza      : ESD, SOC TD-DFT
   Georgi Stoychev        : AutoAux, RI-MP2 NMR
   Willem Van den Heuvel  : Paramagnetic NMR
   Boris Wezisla          : Elementary symmetry handling
   Frank Wennmohs         : Technical directorship


 We gratefully acknowledge several colleagues who have allowed us to
 interface, adapt or use parts of their codes:
   Stefan Grimme, W. Hujo, H. Kruse,             : VdW corrections, initial TS optimization,
                  C. Bannwarth                     DFT functionals, gCP, sTDA/sTD-DF
   Ed Valeev, F. Pavosevic, A. Kumar             : LibInt (2-el integral package), F12 methods
   Garnet Chan, S. Sharma, J. Yang, R. Olivares  : DMRG
   Ulf Ekstrom                                   : XCFun DFT Library
   Mihaly Kallay                                 : mrcc  (arbitrary order and MRCC methods)
   Andreas Klamt, Michael Diedenhofen            : otool_cosmo (COSMO solvation model)
   Jiri Pittner, Ondrej Demel                    : Mk-CCSD
   Frank Weinhold                                : gennbo (NPA and NBO analysis)
   Christopher J. Cramer and Donald G. Truhlar   : smd solvation model
   Lars Goerigk                                  : TD-DFT with DH, B97 family of functionals
   V. Asgeirsson, H. Jonsson                     : NEB implementation
   FAccTs GmbH                                   : IRC, NEB, NEB-TS, Multilevel, MM, QM/MM, CI optimization
   S Lehtola, MJT Oliveira, MAL Marques          : LibXC Library


 Your calculation uses the libint2 library for the computation of 2-el integrals
 For citations please refer to: http://libint.valeyev.net

 Your ORCA version has been built with support for libXC version: 4.2.3
 For citations please refer to: https://tddft.org/programs/libxc/

 This ORCA versions uses:
   CBLAS   interface :  Fast vector & matrix operations
   LAPACKE interface :  Fast linear algebra routines
   SCALAPACK package :  Parallel linear algebra routines


Your calculation utilizes the geometrical counterpoise correction gCP
Please cite in your paper:
H.Kruse, S. Grimme J.Chem.Phys., 136, (2012), 154101 
   

Your calculation utilizes the atom-pairwise dispersion correction
based on tight binding partial charges (D4)
Cite in your paper:
E.Caldeweyher, C.Bannwarth, S.Grimme, J.Chem.Phys., (2017), 147, 034112.
E.Caldeweyher, S.Ehlert, A.Hansen, H.Neugebauer, S.Grimme, J.Chem.Phys., (2018), in progress.
   

----- Orbital basis set information -----
Your calculation utilizes the basis: def2-SVP
   F. Weigend and R. Ahlrichs, Phys. Chem. Chem. Phys. 7, 3297 (2005).

----- AuxJ basis set information -----
Your calculation utilizes the auxiliary basis: def2/J
   F. Weigend, Phys. Chem. Chem. Phys. 8, 1057 (2006).

cite the ECPs for Xe [Def2-ECP] as follows:
Ce-Yb(ecp-28): M. Dolg, H. Stoll, H.Preuss, J. Chem. Phys., 1989, 90, 1730-1734.
Y-Cd(ecp-28), Hf-Hg(ecp-46): D. Andrae,U. Haeussermann, M. Dolg, H. Stoll, H. Preuss, Theor. Chim. Acta, 1990, 77, 123-141.
In-Sb(ecp-28), Tl-Bi(ecp-46): B. Metz, H. Stoll, M. Dolg, J. Chem. Phys., 2000, 113, 2563-2569.
Te-Xe(ecp-28), Po-Rn(ecp-46): K. A. Peterson, D. Figgen, E. Goll, H. Stoll, M. Dolg, J. Chem. Phys., 2003, 119, 11113-11123.
Rb(ecp-28), Cs(ecp-46): T. Leininger, A. Nicklass, W. Kuechle, H. Stoll, M. Dolg, A. Bergner, Chem. Phys. Lett., 1996, 255, 274-280.
Sr(ecp-28), Ba(ecp-46): M. Kaupp, P. V. Schleyer, H. Stoll and H. Preuss, J. Chem. Phys., 1991, 94, 1360-1366.
La(ecp-46): M. Dolg, H. Stoll, A. Savin, H. Preuss, Theor. Chim. Acta, 1989, 75, 173-194.
Lu(ecp-28): X. Cao, M. Dolg, J. Chem. Phys., 2001, 115, 7348-7355.

ECP parameters for Xe [Def2-ECP] have been obtained from:
TURBOMOLE (7.0.2)

================================================================================
                                        WARNINGS
                       Please study these warnings very carefully!
================================================================================


WARNING: Geometry Optimization
  ===> : Switching off AutoStart
         For restart on a previous wavefunction, please use MOREAD

INFO   : the flag for use of LIBINT has been found!

================================================================================
                                       INPUT FILE
================================================================================
NAME = OF4Xe.inp
|  1> ! revPBE D4 gCP(DFT/SVP) def2-SVP Opt Freq TightOpt TightSCF Grid4 FinalGrid5 LargePrint
|  2> 
|  3> %pal
|  4>  nprocs 6
|  5> end
|  6> 
|  7> *xyz 0 1
|  8> Xe      -0.423489239      0.179999232      0.024189694
|  9> O        0.722895489     -1.016816807     -0.448137806
| 10> F        0.709212776      1.232504535      0.106456897
| 11> F       -1.828181215     -1.125238805     -0.077831913
| 12> F       -0.174064590     -0.213728814      1.627222861
| 13> F       -0.710400027      0.632900839     -1.819764031
| 14> *
| 15> 
| 16>                          ****END OF INPUT****
================================================================================

                       *****************************
                       * Geometry Optimization Run *
                       *****************************

Geometry optimization settings:
Update method            Update   .... BFGS
Choice of coordinates    CoordSys .... Z-matrix Internals
Initial Hessian          InHess   .... Almoef's Model

Convergence Tolerances:
Energy Change            TolE     ....  1.0000e-06 Eh
Max. Gradient            TolMAXG  ....  1.0000e-04 Eh/bohr
RMS Gradient             TolRMSG  ....  3.0000e-05 Eh/bohr
Max. Displacement        TolMAXD  ....  1.0000e-03 bohr
RMS Displacement         TolRMSD  ....  6.0000e-04 bohr
Strict Convergence                ....  False
------------------------------------------------------------------------------
                        ORCA OPTIMIZATION COORDINATE SETUP
------------------------------------------------------------------------------

The optimization will be done in new redundant internal coordinates
Making redundant internal coordinates   ...  (new redundants) done
Evaluating the initial hessian          ...  (Almloef) done
Evaluating the coordinates              ...  done
Calculating the B-matrix                .... done
Calculating the G-matrix                .... done
Diagonalizing the G-matrix              .... done
The first mode is                       ....    1
The number of degrees of freedom        ....   12

    -----------------------------------------------------------------
                    Redundant Internal Coordinates


    -----------------------------------------------------------------
         Definition                    Initial Value    Approx d2E/dq
    -----------------------------------------------------------------
      1. B(O   1,Xe  0)                  1.7233         0.552915   
      2. B(F   2,Xe  0)                  1.5484         0.976653   
      3. B(F   3,Xe  0)                  1.9202         0.249196   
      4. B(F   4,Xe  0)                  1.6694         0.626138   
      5. B(F   5,Xe  0)                  1.9203         0.249103   
      6. A(O   1,Xe  0,F   3)           90.0000         0.405218   
      7. A(O   1,Xe  0,F   4)           90.0000         0.478538   
      8. A(F   2,Xe  0,F   4)           90.0000         0.530043   
      9. A(F   3,Xe  0,F   4)           90.0000         0.412756   
     10. A(O   1,Xe  0,F   5)           90.0000         0.405191   
     11. A(F   2,Xe  0,F   5)           90.0000         0.446997   
     12. A(F   3,Xe  0,F   5)           90.0000         0.351795   
     13. A(O   1,Xe  0,F   2)           90.0000         0.519774   
    -----------------------------------------------------------------

Number of atoms                         .... 6
Number of degrees of freedom            .... 13

         *************************************************************
         *                GEOMETRY OPTIMIZATION CYCLE   1            *
         *************************************************************
---------------------------------
CARTESIAN COORDINATES (ANGSTROEM)
---------------------------------
  Xe    -0.423489    0.179999    0.024190
  O      0.722895   -1.016817   -0.448138
  F      0.709213    1.232505    0.106457
  F     -1.828181   -1.125239   -0.077832
  F     -0.174065   -0.213729    1.627223
  F     -0.710400    0.632901   -1.819764

----------------------------
CARTESIAN COORDINATES (A.U.)
----------------------------
  NO LB      ZA    FRAG     MASS         X           Y           Z
   0 Xe   26.0000*   0   131.300   -0.800279    0.340149    0.045712
   1 O     8.0000    0    15.999    1.366074   -1.921505   -0.846858
   2 F     9.0000    0    18.998    1.340218    2.329096    0.201174
   3 F     9.0000    0    18.998   -3.454762   -2.126393   -0.147081
   4 F     9.0000    0    18.998   -0.328934   -0.403889    3.075006
   5 F     9.0000    0    18.998   -1.342461    1.196009   -3.438856
* core charge reduced due to ECP

--------------------------------
INTERNAL COORDINATES (ANGSTROEM)
--------------------------------
 Xe     0   0   0     0.000000000000     0.00000000     0.00000000
 O      1   0   0     1.723270101596     0.00000000     0.00000000
 F      1   2   0     1.548402131333    89.99999997     0.00000000
 F      1   2   3     1.920212042709    90.00000001   180.00000000
 F      1   2   3     1.669415994963    89.99999999   270.00000002
 F      1   2   3     1.920313257215    90.00000000    90.00000000

---------------------------
INTERNAL COORDINATES (A.U.)
---------------------------
 Xe     0   0   0     0.000000000000     0.00000000     0.00000000
 O      1   0   0     3.256508546792     0.00000000     0.00000000
 F      1   2   0     2.926055973400    89.99999997     0.00000000
 F      1   2   3     3.628674879778    90.00000001   180.00000000
 F      1   2   3     3.154739034067    89.99999999   270.00000002
 F      1   2   3     3.628866147474    90.00000000    90.00000000

---------------------
BASIS SET INFORMATION
---------------------
There are 3 groups of distinct atoms

 Group   1 Type Xe  : 11s10p8d2f contracted to 6s5p3d2f pattern {521111/34111/611/11}
 Group   2 Type O   : 7s4p1d contracted to 3s2p1d pattern {511/31/1}
 Group   3 Type F   : 7s4p1d contracted to 3s2p1d pattern {511/31/1}

Atom   0Xe   basis set group =>   1
Atom   1O    basis set group =>   2
Atom   2F    basis set group =>   3
Atom   3F    basis set group =>   3
Atom   4F    basis set group =>   3
Atom   5F    basis set group =>   3

-------------------------
BASIS SET IN INPUT FORMAT
-------------------------

 # Basis set for element : O 
 NewGTO O 
 S 5 
   1    2266.1767785000     -0.0053893504
   2     340.8701019100     -0.0402347214
   3      77.3631351670     -0.1800818421
   4      21.4796449400     -0.4682885766
   5       6.6589433124     -0.4469261716
 S 1 
   1       0.8097597567      1.0000000000
 S 1 
   1       0.2553077223      1.0000000000
 P 3 
   1      17.7215043170      0.0626302488
   2       3.8635505440      0.3333113849
   3       1.0480920883      0.7414863830
 P 1 
   1       0.2764154441      1.0000000000
 D 1 
   1       1.2000000000      1.0000000000
  end;

 # Basis set for element : F 
 NewGTO F 
 S 5 
   1    2894.8325990000     -0.0053493212
   2     435.4193912000     -0.0399677344
   3      98.8433288660     -0.1794126179
   4      27.4851980010     -0.4683246868
   5       8.5405498171     -0.4472416053
 S 1 
   1       1.0654578038      1.0000000000
 S 1 
   1       0.3324734675      1.0000000000
 P 3 
   1      22.6966339240     -0.0647821482
   2       4.9872339257     -0.3403578536
   3       1.3491613954     -0.7348581537
 P 1 
   1       0.3482988198      1.0000000000
 D 1 
   1       1.4000000000      1.0000000000
  end;

 # Basis set for element : Xe
 NewGTO Xe
 S 5 
   1    6420.2481656000      0.0005803743
   2     983.5453066400      0.0037590265
   3     219.4388136400      0.0106482436
   4      23.0125878070     -0.3399766589
   5      18.0483244900      1.3305328819
 S 2 
   1      11.7525501630      0.6426392401
   2       6.2390917199      0.3743679621
 S 1 
   1       2.6257211320      1.0000000000
 S 1 
   1       1.2905042943      1.0000000000
 S 1 
   1       0.3620418506      1.0000000000
 S 1 
   1       0.1406988809      1.0000000000
 P 3 
   1     193.8143254500      0.0040702352
   2      21.7252280860      0.2448817432
   3       9.8891605641     -1.1935854566
 P 4 
   1      13.9606838260     -0.0377633548
   2       4.0928947097      0.2717857050
   3       2.2546815460      0.5382425559
   4       1.1546596184      0.2635338256
 P 1 
   1       0.5232192313      1.0000000000
 P 1 
   1       0.2194556980      1.0000000000
 P 1 
   1       0.0861589968      1.0000000000
 D 6 
   1     135.6030003800      0.0008766390
   2      38.7270626920      0.0065204533
   3      15.3773280890     -0.0099344899
   4       5.2602537686      0.2450969609
   5       2.6590627424      0.4757695225
   6       1.2938205124      0.3857760473
 D 1 
   1       0.5805083014      1.0000000000
 D 1 
   1       0.1800000000      1.0000000000
 F 1 
   1       0.4965279300      1.0000000000
 F 1 
   1       2.5000000000      1.0000000000
  end;

---------------------------------
AUXILIARY/J BASIS SET INFORMATION
---------------------------------
There are 3 groups of distinct atoms

 Group   1 Type Xe  : 11s5p5d3f1g contracted to 8s4p3d2f1g pattern {41111111/2111/311/21/1}
 Group   2 Type O   : 12s5p4d2f1g contracted to 6s4p3d1f1g pattern {711111/2111/211/2/1}
 Group   3 Type F   : 12s5p4d2f1g contracted to 6s4p3d1f1g pattern {711111/2111/211/2/1}

Atom   0Xe   basis set group =>   1
Atom   1O    basis set group =>   2
Atom   2F    basis set group =>   3
Atom   3F    basis set group =>   3
Atom   4F    basis set group =>   3
Atom   5F    basis set group =>   3

-------------------------------------
AUXILIARY/J BASIS SET IN INPUT FORMAT
-------------------------------------

 # Auxiliary/J basis set for element : O 
 NewAuxJGTO O 
 S 7 
   1    2876.8216605000      0.0168151159
   2    1004.7443032000      0.0340137548
   3     369.7579954000      0.1194951309
   4     142.9442404000      0.2664627624
   5      57.8366425000      0.4202764046
   6      24.3864983000      0.2765077335
   7      10.6622662000      0.0057008815
 S 1 
   1       4.8070437000     -1.0000000000
 S 1 
   1       2.2210770000      1.0000000000
 S 1 
   1       1.0447795000      1.0000000000
 S 1 
   1       0.4968425000      1.0000000000
 S 1 
   1       0.2371384000      1.0000000000
 P 2 
   1      64.2613382000     -0.2731534179
   2      16.3006076000     -0.8168011598
 P 1 
   1       4.3550542000      1.0000000000
 P 1 
   1       1.2019554000      1.0000000000
 P 1 
   1       0.3354196000      1.0000000000
 D 2 
   1       9.2146611000     -0.4661230638
   2       2.8435251000     -0.6600908911
 D 1 
   1       0.9955759000     -1.0000000000
 D 1 
   1       0.3649441000     -1.0000000000
 F 2 
   1       2.6420115000      0.5931563945
   2       0.7345613000      0.5931563945
 G 1 
   1       1.3931000000     -1.0000000000
  end;

 # Auxiliary/J basis set for element : F 
 NewAuxJGTO F 
 S 7 
   1    3514.9201549000      0.0176189594
   2    1231.2458815000      0.0358663858
   3     454.1367336000      0.1239867649
   4     175.8376258000      0.2758620517
   5      71.2081775000      0.4252764982
   6      30.0316883000      0.2651963387
   7      13.1259023000     -0.0078514564
 S 1 
   1       5.9126861000     -1.0000000000
 S 1 
   1       2.7284431000      1.0000000000
 S 1 
   1       1.2813993000      1.0000000000
 S 1 
   1       0.6082793000      1.0000000000
 S 1 
   1       0.2897894000      1.0000000000
 P 2 
   1      49.3740409000     -0.8404235528
   2      13.4874956000     -0.2331250081
 P 1 
   1       3.9664900000      1.0000000000
 P 1 
   1       1.2226629000     -1.0000000000
 P 1 
   1       0.3830317000      1.0000000000
 D 2 
   1      29.9719140000     -0.2160273306
   2       6.7860915000     -0.8915140390
 D 1 
   1       1.8137313000     -1.0000000000
 D 1 
   1       0.5157840000     -1.0000000000
 F 2 
   1       2.8301877000      0.5762078303
   2       0.9155962000      0.5762078303
 G 1 
   1       1.6097500000     -1.0000000000
  end;

 # Auxiliary/J basis set for element : Xe
 NewAuxJGTO Xe
 S 4 
   1      50.8073424000      0.0635544390
   2      29.8866712000     -0.4469812495
   3      17.5803943000      1.5382640399
   4      10.3414081000     -2.0951865520
 S 1 
   1       6.0831811000     -1.0000000000
 S 1 
   1       3.5783417000      1.0000000000
 S 1 
   1       2.1049068000      1.0000000000
 S 1 
   1       0.7283414000      1.0000000000
 S 1 
   1       0.4284361000      1.0000000000
 S 1 
   1       0.2520212000      1.0000000000
 S 1 
   1       0.1482478000      1.0000000000
 P 2 
   1       7.1700000000      0.5100821016
   2       2.5400000000     -1.3056262655
 P 1 
   1       0.8900000000      1.0000000000
 P 1 
   1       0.3100000000      1.0000000000
 P 1 
   1       0.1100000000      1.0000000000
 D 3 
   1      15.9800000000      0.3144166814
   2       5.8900000000     -1.5598050361
   3       2.2100000000      1.2024098727
 D 1 
   1       0.8400000000      1.0000000000
 D 1 
   1       0.3200000000      1.0000000000
 F 2 
   1       2.1300000000     -0.6621352445
   2       0.8700000000      1.2907958834
 F 1 
   1       0.3600000000      1.0000000000
 G 1 
   1       1.0300000000      1.0000000000
  end;

-------------------------
ECP PARAMETER INFORMATION
-------------------------

 Group 1, Type Xe ECP Def2-ECP (replacing 28 core electrons, lmax=3)

Atom   0Xe   ECP group =>   1


-------------------------
ECP BASIS IN INPUT FORMAT
-------------------------

 #ECP Def2-ECP
 NewECP Xe
   N_core 28
   lmax f
   s 7
     1      40.0051840000     49.9979620000  2
     2      17.8122140000    281.0133030000  2
     3       9.3041500000     61.5382550000  2
     4      20.8815570000     23.0892950000  2
     5      20.7834430000     30.0744750000  2
     6       5.2533890000      0.2882270000  2
     7       5.3611880000      0.3869240000  2
   p 8
     1      15.7017720000     67.4391420000  2
     2      15.2586080000    134.8747110000  2
     3       9.2921840000     14.6633000000  2
     4       8.5590030000     29.3547300000  2
     5      20.8815570000     23.0892950000  2
     6      20.7834430000     30.0744750000  2
     7       5.2533890000      0.2882270000  2
     8       5.3611880000      0.3869240000  2
   d 10
     1      15.1856000000     35.4369080000  2
     2      14.2845000000     53.1957720000  2
     3       7.1218890000      9.0462320000  2
     4       6.9919630000     13.2236810000  2
     5       0.6239460000      0.0848530000  2
     6       0.6472840000      0.0441550000  2
     7      20.8815570000     23.0892950000  2
     8      20.7834430000     30.0744750000  2
     9       5.2533890000      0.2882270000  2
    10       5.3611880000      0.3869240000  2
   f 4
     1      20.8815570000    -23.0892950000  2
     2      20.7834430000    -30.0744750000  2
     3       5.2533890000     -0.2882270000  2
     4       5.3611880000     -0.3869240000  2
 End




           ************************************************************
           *        Program running with 6 parallel MPI-processes     *
           *              working on a common directory               *
           ************************************************************
------------------------------------------------------------------------------
                           ORCA GTO INTEGRAL CALCULATION
                           -- RI-GTO INTEGRALS CHOSEN --
------------------------------------------------------------------------------

                         BASIS SET STATISTICS AND STARTUP INFO

Gaussian basis set:
 # of primitive gaussian shells          ...   91
 # of primitive gaussian functions       ...  215
 # of contracted shells                  ...   46
 # of contracted basis functions         ...  120
 Highest angular momentum                ...    3
 Maximum contraction depth               ...    6
Auxiliary gaussian basis set:
 # of primitive gaussian shells          ...  145
 # of primitive gaussian functions       ...  431
 # of contracted shells                  ...   93
 # of contracted aux-basis functions     ...  303
 Highest angular momentum                ...    4
 Maximum contraction depth               ...    7
Ratio of auxiliary to basis functions    ...  2.52
Integral package used                  ... LIBINT
 One Electron integrals                  
   ECP integrals                         ... done
 Ordering auxiliary basis shells         ... done
 Integral threshhold             Thresh  ...  2.500e-11
 Primitive cut-off               TCut    ...  2.500e-12
 Pre-screening matrix                    ... done
 Shell pair data                         ... 
 Ordering of the shell pairs             ... done (   0.000 sec) 1040 of 1081 pairs
 Determination of significant pairs      ... done (   0.000 sec)
 Creation of shell pair data             ... done (   0.000 sec)
 Storage of shell pair data              ... done (   0.004 sec)
 Shell pair data done in (   0.005 sec)
 Computing two index integrals           ... done
 Cholesky decomposition of the V-matrix  ... done


Timings:
 Total evaluation time                   ...   0.528 sec (  0.009 min)
 One electron matrix time                ...   0.288 sec (  0.005 min) = 54.5%
 Schwartz matrix evaluation time         ...   0.184 sec (  0.003 min) = 34.8%
 Two index repulsion integral time       ...   0.012 sec (  0.000 min) =  2.3%
 Cholesky decomposition of V             ...   0.008 sec (  0.000 min) =  1.6%
 Three index repulsion integral time     ...   0.000 sec (  0.000 min) =  0.0%



           ************************************************************
           *        Program running with 6 parallel MPI-processes     *
           *              working on a common directory               *
           ************************************************************
-------------------------------------------------------------------------------
                                 ORCA SCF
-------------------------------------------------------------------------------

------------
SCF SETTINGS
------------
Hamiltonian:
 Density Functional     Method          .... DFT(GTOs)
 Exchange Functional    Exchange        .... PBE
   PBE kappa parameter   XKappa         ....  1.245000
   PBE mue parameter    XMuePBE         ....  0.219520
 Correlation Functional Correlation     .... PBE
   PBE beta parameter  CBetaPBE         ....  0.066725
 LDA part of GGA corr.  LDAOpt          .... PW91-LDA
 Gradients option       PostSCFGGA      .... off
   Density functional embedding theory  .... OFF
   NL short-range parameter             ....  3.700000
 RI-approximation to the Coulomb term is turned on
   Number of auxiliary basis functions  .... 303


General Settings:
 Integral files         IntName         .... OF4Xe
 Hartree-Fock type      HFTyp           .... RHF
 Total Charge           Charge          ....    0
 Multiplicity           Mult            ....    1
 Number of Electrons    NEL             ....   70
 Basis Dimension        Dim             ....  120
 Nuclear Repulsion      ENuc            ....    501.9752199809 Eh

Convergence Acceleration:
 DIIS                   CNVDIIS         .... on
   Start iteration      DIISMaxIt       ....    12
   Startup error        DIISStart       ....  0.200000
   # of expansion vecs  DIISMaxEq       ....     5
   Bias factor          DIISBfac        ....   1.050
   Max. coefficient     DIISMaxC        ....  10.000
 Newton-Raphson         CNVNR           .... off
 SOSCF                  CNVSOSCF        .... on
   Start iteration      SOSCFMaxIt      ....   150
   Startup grad/error   SOSCFStart      ....  0.003300
 Level Shifting         CNVShift        .... on
   Level shift para.    LevelShift      ....    0.2500
   Turn off err/grad.   ShiftErr        ....    0.0010
 Zerner damping         CNVZerner       .... off
 Static damping         CNVDamp         .... on
   Fraction old density DampFac         ....    0.7000
   Max. Damping (<1)    DampMax         ....    0.9800
   Min. Damping (>=0)   DampMin         ....    0.0000
   Turn off err/grad.   DampErr         ....    0.1000
 Fernandez-Rico         CNVRico         .... off

SCF Procedure:
 Maximum # iterations   MaxIter         ....   125
 SCF integral mode      SCFMode         .... Direct
   Integral package                     .... LIBINT
 Reset frequency        DirectResetFreq ....    20
 Integral Threshold     Thresh          ....  2.500e-11 Eh
 Primitive CutOff       TCut            ....  2.500e-12 Eh

Convergence Tolerance:
 Convergence Check Mode ConvCheckMode   .... Total+1el-Energy
 Convergence forced     ConvForced      .... 0
 Energy Change          TolE            ....  1.000e-08 Eh
 1-El. energy change                    ....  1.000e-05 Eh
 Orbital Gradient       TolG            ....  1.000e-05
 Orbital Rotation angle TolX            ....  1.000e-05
 DIIS Error             TolErr          ....  5.000e-07


Diagonalization of the overlap matrix:
Smallest eigenvalue                        ... 5.242e-03
Time for diagonalization                   ...    0.012 sec
Threshold for overlap eigenvalues          ... 1.000e-08
Number of eigenvalues below threshold      ... 0
Time for construction of square roots      ...    0.037 sec
Total time needed                          ...    0.050 sec

-------------------
DFT GRID GENERATION
-------------------

General Integration Accuracy     IntAcc      ...  4.670
Radial Grid Type                 RadialGrid  ... Gauss-Chebyshev
Angular Grid (max. acc.)         AngularGrid ... Lebedev-302
Angular grid pruning method      GridPruning ... 3 (G Style)
Weight generation scheme         WeightScheme... Becke
Basis function cutoff            BFCut       ...    1.0000e-11
Integration weight cutoff        WCut        ...    1.0000e-14
Grids for H and He will be reduced by one unit

# of grid points (after initial pruning)     ...  41934 (   0.0 sec)
# of grid points (after weights+screening)   ...  40744 (   0.0 sec)
nearest neighbour list constructed           ...    0.0 sec
Grid point re-assignment to atoms done       ...    0.0 sec
Grid point division into batches done        ...    0.3 sec
Reduced shell lists constructed in    0.3 sec

Total number of grid points                  ...    40744
Total number of batches                      ...      639
Average number of points per batch           ...       63
Average number of grid points per atom       ...     6791
Average number of shells per batch           ...    36.79 (79.97%)
Average number of basis functions per batch  ...   102.97 (85.81%)
Average number of large shells per batch     ...    33.15 (90.11%)
Average number of large basis fcns per batch ...    92.80 (90.12%)
Maximum spatial batch extension              ...  18.78, 18.50, 15.42 au
Average spatial batch extension              ...   0.34,  0.34,  0.31 au

Time for grid setup =    0.418 sec

------------------------------
INITIAL GUESS: MODEL POTENTIAL
------------------------------
Loading Hartree-Fock densities                     ... done
  calling /opt/orca/orca OF4Xe_atom54.inp > OF4Xe_atom54.out in order to generate an atomic fitting density for atom 0 (Xe with ECP) on-the-fly... 
    atom 0 (Xe), assumed electronic state with S=1: 1s2 2s2 2p6 3s2 3p6 4s2 3d10 4p6 5s2 4d10 5p6           ... done
Calculating cut-offs                               ... done
Setting up the integral package                    ... done
Initializing the effective Hamiltonian             ... done
Starting the Coulomb interaction                   ... done (   0.0 sec)
Reading the grid                                   ... done
Mapping shells                                     ... done
Starting the XC term evaluation                    ... done (   0.1 sec)
  promolecular density results
     # of electrons  =     98.003368036
     EX              =   -234.619875414
     EC              =     -4.520472519
     EX+EC           =   -239.140347933
Transforming the Hamiltonian                       ... done (   0.0 sec)
Diagonalizing the Hamiltonian                      ... done (   0.0 sec)
Back transforming the eigenvectors                 ... done (   0.0 sec)
Now organizing SCF variables                       ... done
                      ------------------
                      INITIAL GUESS DONE (   1.7 sec)
                      ------------------
----------------------
INITIAL GUESS ORBITALS
----------------------
                      0         1         2         3         4         5   
                 -24.85680 -24.71329 -24.52739 -24.52732 -19.21319 -13.41787
                   2.00000   2.00000   2.00000   2.00000   2.00000   2.00000
                  --------  --------  --------  --------  --------  --------
  0Xe  1s         0.000220  0.000168  0.000107 -0.000080 -0.000478 -0.494324
  0Xe  2s        -0.000461 -0.000347 -0.000226  0.000169  0.001021  1.224275
  0Xe  3s         0.001018  0.000731  0.000608 -0.000451 -0.002517 -1.258301
  0Xe  4s        -0.001134 -0.000946 -0.001277  0.000862  0.003575 -0.283770
  0Xe  5s         0.007003  0.007588  0.009309 -0.004357 -0.009895 -0.003808
  0Xe  6s        -0.022562 -0.019846 -0.019884  0.008175  0.023151  0.000954
  0Xe  1pz       -0.000002 -0.000041  0.000006 -0.000012 -0.000045 -0.000099
  0Xe  1px       -0.000091 -0.000011  0.000011  0.000003  0.000109 -0.000477
  0Xe  1py       -0.000073  0.000017  0.000010  0.000007 -0.000116 -0.000010
  0Xe  2pz       -0.000003 -0.000145  0.000039 -0.000083 -0.000212 -0.000602
  0Xe  2px       -0.000346 -0.000046  0.000076  0.000019  0.000516 -0.002900
  0Xe  2py       -0.000261  0.000071  0.000066  0.000045 -0.000551 -0.000054
  0Xe  3pz        0.000002  0.001554 -0.000593  0.001327  0.000665  0.000164
  0Xe  3px        0.001175  0.000478 -0.000955 -0.000235 -0.002105  0.000322
  0Xe  3py        0.000590 -0.000598 -0.000876 -0.000655  0.002016  0.000070
  0Xe  4pz       -0.000632 -0.009875  0.001177 -0.002895 -0.002383 -0.000531
  0Xe  4px       -0.010099 -0.002656  0.000616  0.000529  0.008815 -0.001160
  0Xe  4py       -0.007589  0.002954  0.001276  0.001117 -0.007589 -0.000509
  0Xe  5pz       -0.000098 -0.003554  0.001804 -0.003997 -0.002047  0.000012
  0Xe  5px       -0.002335 -0.000612  0.003417  0.000588  0.004774  0.000196
  0Xe  5py       -0.001984  0.000983  0.002587  0.002134 -0.005115 -0.000032
  0Xe  1dz2       0.000202 -0.000056 -0.000027 -0.000058 -0.000172  0.000117
  0Xe  1dxz       0.000006 -0.000047  0.000026 -0.000057 -0.000158 -0.000014
  0Xe  1dyz      -0.000011  0.000101 -0.000055  0.000080  0.000177 -0.000016
  0Xe  1dx2y2    -0.000084  0.000017  0.000062  0.000035 -0.000053 -0.000019
  0Xe  1dxy      -0.000293  0.000058  0.000118  0.000037 -0.000396 -0.000186
  0Xe  2dz2       0.000026 -0.000448  0.000088 -0.000199  0.000107  0.000056
  0Xe  2dxz      -0.000100  0.000049 -0.000065  0.000152  0.000136 -0.000041
  0Xe  2dyz      -0.000043 -0.000070  0.000155 -0.000133 -0.000162  0.000016
  0Xe  2dx2y2     0.000270 -0.000029 -0.000242 -0.000113  0.000092 -0.000005
  0Xe  2dxy      -0.000255 -0.000202 -0.000213 -0.000000  0.000406 -0.000250
  0Xe  3dz2       0.006515 -0.009536  0.001886  0.010122 -0.002889  0.000140
  0Xe  3dxz      -0.000734 -0.003806 -0.000949  0.001070 -0.002067  0.000004
  0Xe  3dyz      -0.000875  0.004868  0.000247 -0.003312  0.002056 -0.000048
  0Xe  3dx2y2    -0.002103  0.000276  0.000508 -0.000124  0.000164 -0.000041
  0Xe  3dxy      -0.010425  0.001525 -0.007592 -0.003736 -0.005641 -0.000057
  0Xe  1f0       -0.000116 -0.000553  0.000128 -0.000586  0.000077 -0.000134
  0Xe  1f+1      -0.000035 -0.000307 -0.000142 -0.000434 -0.000042  0.000120
  0Xe  1f-1      -0.000102  0.000428 -0.000420  0.000351 -0.000146  0.000208
  0Xe  1f+2      -0.000068  0.000018  0.000025  0.000067 -0.000008  0.000004
  0Xe  1f-2      -0.000066 -0.000101  0.000014  0.000048 -0.000066 -0.000061
  0Xe  1f+3      -0.000021 -0.000059  0.000272  0.000189 -0.000032 -0.000225
  0Xe  1f-3      -0.000003  0.000001 -0.000501 -0.000179 -0.000194  0.000177
  0Xe  2f0        0.000036 -0.000116 -0.000015  0.000055  0.000057 -0.000052
  0Xe  2f+1       0.000130 -0.000029  0.000016  0.000042 -0.000041  0.000055
  0Xe  2f-1       0.000133  0.000068  0.000045 -0.000038  0.000060  0.000043
  0Xe  2f+2       0.000012  0.000014 -0.000006 -0.000008  0.000005  0.000000
  0Xe  2f-2      -0.000020  0.000049 -0.000006  0.000005  0.000097 -0.000046
  0Xe  2f+3      -0.000136 -0.000003 -0.000036 -0.000021  0.000104 -0.000096
  0Xe  2f-3       0.000166  0.000000  0.000059  0.000019  0.000103  0.000027
  1O   1s        -0.000035 -0.000040 -0.000059  0.000025 -0.988647  0.000001
  1O   2s        -0.000671 -0.000688 -0.000839  0.000360  0.042990  0.000009
  1O   3s         0.001634  0.001494  0.001357 -0.000581 -0.036069  0.000016
  1O   1pz        0.000015 -0.000077  0.000049 -0.000155  0.001017 -0.000002
  1O   1px       -0.000040 -0.000009  0.000207 -0.000007 -0.002478 -0.000001
  1O   1py        0.000034  0.000016  0.000040  0.000122  0.002580 -0.000001
  1O   2pz        0.000335  0.001725 -0.000285  0.001108 -0.003275  0.000075
  1O   2px        0.000493 -0.000309 -0.001550  0.000082  0.007554 -0.000085
  1O   2py        0.001597  0.000237 -0.000103 -0.000907 -0.008082  0.000149
  1O   1dz2      -0.000211  0.000319 -0.000172 -0.000177  0.000171 -0.000036
  1O   1dxz       0.000010 -0.000184 -0.000028 -0.000131  0.000162 -0.000028
  1O   1dyz       0.000191  0.000170 -0.000018  0.000169 -0.000185  0.000032
  1O   1dx2y2    -0.000356  0.000004  0.000138  0.000090  0.000052 -0.000005
  1O   1dxy       0.000054 -0.000107  0.000016  0.000227  0.000376 -0.000068
  2F   1s         0.988385 -0.000156 -0.000456 -0.000040  0.000037 -0.000031
  2F   2s        -0.043729 -0.000429 -0.001633 -0.000125  0.000547 -0.000199
  2F   3s         0.039240  0.000571  0.007177  0.002362 -0.002559  0.000913
  2F   1pz       -0.000215  0.000081 -0.000074  0.000168  0.000018  0.000005
  2F   1px       -0.002838  0.000017 -0.000283 -0.000019 -0.000117 -0.000007
  2F   1py       -0.002707 -0.000022 -0.000176 -0.000069  0.000019 -0.000003
  2F   2pz       -0.000618  0.001280 -0.000509  0.001016  0.000429 -0.000005
  2F   2px       -0.007831 -0.000139 -0.002361 -0.000329 -0.000374 -0.000513
  2F   2py       -0.007986 -0.000744 -0.001629 -0.000523  0.001737 -0.000469
  2F   1dz2      -0.000196  0.000114  0.000040 -0.000192  0.000008 -0.000085
  2F   1dxz       0.000024 -0.000074  0.000040 -0.000125 -0.000048  0.000012
  2F   1dyz       0.000025 -0.000273  0.000002  0.000013 -0.000040  0.000012
  2F   1dx2y2    -0.000052 -0.000073  0.000048 -0.000010  0.000227  0.000016
  2F   1dxy       0.000350  0.000122  0.000050 -0.000100 -0.000051  0.000142
  3F   1s         0.000151  0.000107  0.922446  0.355892  0.000052  0.000004
  3F   2s        -0.001548 -0.000347 -0.038053 -0.014432  0.000522  0.000086
  3F   3s         0.005866  0.000014  0.024658  0.009796 -0.001321 -0.000331
  3F   1pz        0.000013  0.000154  0.000041  0.000198  0.000046  0.000004
  3F   1px        0.000144  0.000084  0.001481  0.000537 -0.000156  0.000006
  3F   1py        0.000198  0.000014  0.001354  0.000412  0.000099  0.000014
  3F   2pz        0.000141  0.000881  0.000071  0.000850  0.000269  0.000007
  3F   2px        0.001761  0.000251  0.005038  0.002075 -0.001186 -0.000150
  3F   2py        0.001979 -0.000164  0.004459  0.001529  0.000430 -0.000110
  3F   1dz2      -0.000063  0.000112 -0.000222 -0.000204  0.000045  0.000012
  3F   1dxz       0.000003  0.000207  0.000021  0.000050  0.000033 -0.000000
  3F   1dyz       0.000013  0.000054 -0.000009  0.000116  0.000033  0.000001
  3F   1dx2y2    -0.000037  0.000065  0.000077  0.000053 -0.000207 -0.000004
  3F   1dxy       0.000095  0.000050  0.000461  0.000120 -0.000009 -0.000024
  4F   1s         0.000094  0.988505 -0.000363  0.000424  0.000045 -0.000011
  4F   2s        -0.000430 -0.042788 -0.000784  0.000938  0.000588 -0.000087
  4F   3s         0.000511  0.035063  0.002023 -0.005142 -0.002177  0.000220
  4F   1pz        0.000014 -0.003015 -0.000180  0.000236  0.000010 -0.000024
  4F   1px        0.000052 -0.000427 -0.000175  0.000020 -0.000097 -0.000004
  4F   1py        0.000032  0.000711 -0.000065 -0.000132  0.000098  0.000013
  4F   2pz       -0.000382 -0.010058 -0.001154  0.001995  0.001250 -0.000298
  4F   2px        0.000863 -0.001152 -0.000929  0.000295 -0.000873 -0.000028
  4F   2py        0.000862  0.002240 -0.000296 -0.000911  0.000759  0.000116
  4F   1dz2       0.000019  0.000605 -0.000004  0.000030 -0.000160  0.000094
  4F   1dxz      -0.000164  0.000091  0.000115  0.000019  0.000135  0.000029
  4F   1dyz      -0.000244 -0.000229  0.000023  0.000023 -0.000109 -0.000045
  4F   1dx2y2    -0.000036 -0.000022  0.000008  0.000004 -0.000021 -0.000003
  4F   1dxy       0.000198 -0.000019  0.000174  0.000097 -0.000051 -0.000007
  5F   1s         0.000042  0.000302  0.355836 -0.922474  0.000052  0.000005
  5F   2s        -0.000396 -0.001197 -0.014852  0.037848  0.000526  0.000077
  5F   3s         0.000175  0.004762  0.009215 -0.024719 -0.001334 -0.000314
  5F   1pz        0.000070  0.000244  0.000796 -0.001860  0.000007  0.000016
  5F   1px        0.000108 -0.000006  0.000011 -0.000372 -0.000134 -0.000001
  5F   1py        0.000065 -0.000034 -0.000319  0.000432  0.000140  0.000002
  5F   2pz        0.000220  0.002275  0.002432 -0.006436 -0.000250 -0.000106
  5F   2px        0.000721  0.000112 -0.000052 -0.001433 -0.000893 -0.000015
  5F   2py        0.000526 -0.000427 -0.001151  0.001511  0.000941  0.000059
  5F   1dz2       0.000035  0.000063  0.000146 -0.000466  0.000052 -0.000004
  5F   1dxz       0.000214 -0.000028  0.000045 -0.000189 -0.000137  0.000001
  5F   1dyz       0.000105  0.000000 -0.000153  0.000205  0.000137  0.000007
  5F   1dx2y2     0.000093 -0.000003 -0.000035  0.000001  0.000007  0.000002
  5F   1dxy       0.000119 -0.000000  0.000114  0.000104  0.000083  0.000001
                      6         7         8         9        10        11   
                 -11.14062 -11.13813 -11.13786  -7.83979  -7.83128  -7.82335
                   2.00000   2.00000   2.00000   2.00000   2.00000   2.00000
                  --------  --------  --------  --------  --------  --------
  0Xe  1s         0.001780  0.000726  0.001182 -0.002809 -0.001670  0.000002
  0Xe  2s        -0.004307 -0.001798 -0.002876  0.006469  0.003790 -0.000005
  0Xe  3s         0.007226  0.002370  0.005025 -0.018244 -0.010963  0.000010
  0Xe  4s        -0.004859 -0.000212 -0.004673  0.027736  0.017002 -0.000006
  0Xe  5s         0.001385  0.000910  0.020627 -0.023295 -0.014462  0.000252
  0Xe  6s         0.000046 -0.008351 -0.049553 -0.021653 -0.001666 -0.000801
  0Xe  1pz       -0.009044 -0.166157  0.071103  0.000089 -0.000236 -0.000166
  0Xe  1px       -0.134185 -0.041581 -0.114147  0.000024  0.000165 -0.000077
  0Xe  1py       -0.121199  0.058421  0.121029 -0.000173 -0.000180 -0.000012
  0Xe  2pz       -0.059459 -1.092610  0.467570  0.000806 -0.002157 -0.001337
  0Xe  2px       -0.882149 -0.273425 -0.750616 -0.000283  0.001351 -0.000616
  0Xe  2py       -0.796774  0.384161  0.795873 -0.002007 -0.001638 -0.000094
  0Xe  3pz        0.011085  0.205401 -0.087262 -0.008116  0.017710  0.000872
  0Xe  3px        0.164222  0.051817  0.140844  0.008625 -0.005632  0.000169
  0Xe  3py        0.147306 -0.072325 -0.148637  0.019582  0.009507 -0.000147
  0Xe  4pz       -0.007720 -0.148085  0.064491  0.028824 -0.069128  0.000077
  0Xe  4px       -0.111930 -0.038944 -0.106629 -0.064690  0.015266  0.000671
  0Xe  4py       -0.098096  0.053049  0.111282 -0.104513 -0.041826  0.000549
  0Xe  5pz        0.001651  0.029568 -0.009771 -0.002141  0.008867 -0.001283
  0Xe  5px        0.021953  0.006062  0.011829  0.006103 -0.005905 -0.000651
  0Xe  5py        0.020480 -0.009070 -0.013433  0.013831  0.009198 -0.000125
  0Xe  1dz2       0.001822 -0.000450  0.000990 -0.657626  0.700228  0.099749
  0Xe  1dxz      -0.000383 -0.001798  0.000732  0.021071  0.349782  0.755776
  0Xe  1dyz      -0.000259  0.000575 -0.000206  0.137740 -0.425303  0.692002
  0Xe  1dx2y2    -0.001610 -0.000272 -0.000793  0.054196  0.012607  0.279295
  0Xe  1dxy      -0.003024  0.000725  0.001667  0.845159  0.603801 -0.071920
  0Xe  2dz2      -0.001631 -0.001084 -0.000787  0.123434 -0.118252 -0.014947
  0Xe  2dxz       0.000197  0.001352 -0.000791 -0.003770 -0.058533 -0.112893
  0Xe  2dyz       0.000039 -0.000659  0.000642 -0.026003  0.071456 -0.103412
  0Xe  2dx2y2     0.001968  0.000040  0.000090 -0.009720 -0.002000 -0.041734
  0Xe  2dxy       0.002648 -0.000774 -0.001877 -0.157250 -0.100832  0.010714
  0Xe  3dz2      -0.001539  0.005148  0.015214 -0.017907  0.021925  0.006378
  0Xe  3dxz      -0.000535 -0.005295  0.011551 -0.000149  0.005971  0.048943
  0Xe  3dyz      -0.000045  0.000060 -0.010202  0.004698 -0.010351  0.045303
  0Xe  3dx2y2    -0.007001 -0.000955 -0.001796 -0.003121 -0.001072  0.018184
  0Xe  3dxy       0.003816  0.005871  0.029819  0.013878  0.009746 -0.004811
  0Xe  1f0        0.000139 -0.006654 -0.001545  0.012271 -0.005703  0.000486
  0Xe  1f+1       0.001984 -0.002977  0.002268  0.015044 -0.005511 -0.000042
  0Xe  1f-1       0.001690  0.004428 -0.002312  0.007075  0.012235 -0.000051
  0Xe  1f+2      -0.000338  0.000424 -0.000098 -0.000961  0.000989  0.000086
  0Xe  1f-2      -0.000628  0.000091 -0.003002 -0.001937  0.006982 -0.000687
  0Xe  1f+3      -0.002376 -0.000407 -0.003033 -0.011510  0.003859  0.000213
  0Xe  1f-3       0.003268 -0.000288 -0.002889  0.019955  0.008628  0.000138
  0Xe  2f0        0.000006  0.000914  0.000121 -0.001873  0.000628 -0.000671
  0Xe  2f+1      -0.000125  0.000384 -0.000239 -0.002481  0.001380  0.000306
  0Xe  2f-1      -0.000095 -0.000593  0.000246 -0.001128 -0.001951  0.000324
  0Xe  2f+2       0.000049 -0.000065 -0.000003  0.000152  0.000071  0.000618
  0Xe  2f-2       0.000053 -0.000111  0.000366  0.000392 -0.001317  0.000854
  0Xe  2f+3       0.000170  0.000089  0.000424  0.001472 -0.000728 -0.000359
  0Xe  2f-3      -0.000254  0.000059  0.000406 -0.003422 -0.001778 -0.000007
  1O   1s        -0.000011 -0.000141 -0.001085 -0.000522 -0.001245 -0.000002
  1O   2s        -0.000254 -0.001175 -0.008151  0.003090  0.009230  0.000001
  1O   3s         0.002597  0.009807  0.068484 -0.014961 -0.041088 -0.000057
  1O   1pz        0.000004 -0.000338 -0.000284 -0.000577 -0.001728 -0.000121
  1O   1px       -0.000315 -0.000010  0.000728  0.001559  0.004013 -0.000056
  1O   1py       -0.000153  0.000026 -0.000780 -0.001601 -0.004171 -0.000013
  1O   2pz        0.000829  0.009299  0.009304 -0.006065 -0.009340  0.000501
  1O   2px        0.005074 -0.001847 -0.022435  0.013695  0.029734  0.000280
  1O   2py        0.006183  0.001518  0.024797 -0.007783 -0.030071  0.000007
  1O   1dz2       0.000111  0.000857  0.001472  0.003006  0.007446 -0.000106
  1O   1dxz       0.000290 -0.000736  0.001239  0.002629  0.005923 -0.000801
  1O   1dyz       0.000412  0.000911 -0.001229 -0.002530 -0.006057 -0.000772
  1O   1dx2y2    -0.001493  0.000116 -0.000075 -0.000332  0.000587 -0.000277
  1O   1dxy      -0.000050  0.000760  0.003031  0.005768  0.015623  0.000087
  2F   1s        -0.000706 -0.000000 -0.000043  0.001183  0.000073 -0.000046
  2F   2s         0.000864 -0.000106 -0.000589 -0.016876 -0.004028 -0.000389
  2F   3s         0.014897  0.000459 -0.001523  0.106062  0.023069  0.000694
  2F   1pz       -0.000196  0.000932 -0.000383  0.000309  0.000290 -0.003089
  2F   1px       -0.002604  0.000313  0.000687  0.008431  0.001595 -0.000501
  2F   1py       -0.002817 -0.000304 -0.000740  0.007517  0.000829  0.000699
  2F   2pz       -0.000025  0.007808 -0.003492 -0.006188  0.001630 -0.010597
  2F   2px       -0.001471  0.002019  0.005796 -0.058145 -0.010006 -0.001686
  2F   2py       -0.005020 -0.003099 -0.006703 -0.055307 -0.011034  0.002433
  2F   1dz2       0.004554 -0.000201 -0.000582 -0.012169 -0.001694 -0.000586
  2F   1dxz      -0.000641  0.000255 -0.000212  0.001597  0.000472 -0.004977
  2F   1dyz      -0.000611  0.000098  0.000187  0.001517  0.000142 -0.004526
  2F   1dx2y2    -0.000902  0.000068  0.000138  0.001391  0.000020 -0.001828
  2F   1dxy      -0.007819 -0.000066 -0.000107  0.021248  0.003506  0.000503
  3F   1s         0.000097 -0.000005  0.000004 -0.000427 -0.000173  0.000019
  3F   2s         0.003098 -0.000052  0.000166 -0.003251 -0.001583  0.000117
  3F   3s        -0.019640 -0.000041 -0.002702 -0.012329  0.001539 -0.000122
  3F   1pz       -0.000026  0.000343 -0.000193  0.000029  0.000046  0.001778
  3F   1px       -0.000063  0.000123  0.000474  0.002183  0.000684  0.000248
  3F   1py        0.000274 -0.000157 -0.000377  0.002096  0.000164 -0.000442
  3F   2pz       -0.001084  0.003267 -0.001752 -0.001139  0.001123  0.012959
  3F   2px       -0.013076  0.001024  0.002699 -0.002516  0.001094  0.001988
  3F   2py       -0.010152 -0.001328 -0.003882 -0.000831  0.000315 -0.003038
  3F   1dz2       0.000295  0.000020 -0.000319 -0.001591 -0.000567  0.000066
  3F   1dxz      -0.000086  0.001075 -0.000513  0.000055  0.000205  0.000787
  3F   1dyz      -0.000049  0.000874 -0.000341  0.000032  0.000453  0.000703
  3F   1dx2y2    -0.000288  0.000607  0.001513 -0.000091 -0.000126  0.000288
  3F   1dxy      -0.000534 -0.000163 -0.000298  0.002953  0.000306 -0.000054
  4F   1s        -0.000004 -0.000301 -0.000004 -0.000205  0.000057 -0.000089
  4F   2s        -0.000172 -0.000492 -0.000321  0.009535 -0.013656 -0.000741
  4F   3s         0.001261  0.023265 -0.004978 -0.031313  0.045132  0.001565
  4F   1pz        0.000092 -0.001032 -0.000183 -0.001965  0.002132 -0.000248
  4F   1px        0.000517  0.000183  0.000534 -0.000038  0.000747 -0.001499
  4F   1py        0.000392  0.000061 -0.000530  0.000593 -0.000858 -0.001370
  4F   2pz       -0.000158 -0.013760 -0.000518  0.031438 -0.040810 -0.001048
  4F   2px        0.005170  0.000883  0.005548  0.007322 -0.004903 -0.008938
  4F   2py        0.004559  0.001783 -0.005963 -0.004932  0.009967 -0.008382
  4F   1dz2       0.000043 -0.004291  0.001054 -0.011327  0.013695 -0.000393
  4F   1dxz      -0.000655 -0.001650 -0.000485 -0.003353  0.003755 -0.002488
  4F   1dyz      -0.000605  0.002139  0.000350  0.004822 -0.006134 -0.002248
  4F   1dx2y2    -0.000085  0.000137  0.000089  0.000381 -0.000459 -0.000940
  4F   1dxy      -0.000044  0.000393 -0.000337  0.000751 -0.000938  0.000317
  5F   1s        -0.000010  0.000103 -0.000010  0.000148 -0.000355  0.000049
  5F   2s        -0.000124  0.003522 -0.000261  0.001479 -0.003555  0.000361
  5F   3s         0.000567 -0.021122 -0.000317  0.009449 -0.006986 -0.000664
  5F   1pz        0.000011  0.000116 -0.000121 -0.001941  0.002433  0.000033
  5F   1px        0.000341 -0.000188  0.000514 -0.000023  0.000560  0.001253
  5F   1py        0.000273 -0.000001 -0.000483  0.000452 -0.000807  0.001219
  5F   2pz        0.000338 -0.017435 -0.000180 -0.000579  0.002783  0.000676
  5F   2px        0.002856 -0.003909  0.003928  0.002151  0.000409  0.009423
  5F   2py        0.002330  0.004304 -0.003946  0.001455 -0.000407  0.008992
  5F   1dz2       0.000153 -0.000988 -0.000672 -0.002571  0.003486  0.000161
  5F   1dxz       0.001057 -0.000446  0.000949 -0.000311  0.000756  0.000709
  5F   1dyz       0.000892  0.000385 -0.001000  0.001679 -0.001196  0.000622
  5F   1dx2y2     0.000495 -0.000003 -0.000080  0.000326 -0.000066  0.000275
  5F   1dxy      -0.000178  0.000037 -0.000812 -0.000103 -0.000351 -0.000096
                     12        13        14        15        16        17   
                  -7.82275  -7.82095  -3.60979  -2.78973  -2.77167  -2.75920
                   2.00000   2.00000   2.00000   2.00000   2.00000   2.00000
                  --------  --------  --------  --------  --------  --------
  0Xe  1s         0.000122  0.000088  0.420094  0.023322 -0.008963 -0.006868
  0Xe  2s        -0.000274 -0.000199 -1.120470 -0.061505  0.023233  0.018126
  0Xe  3s         0.000861  0.000598  2.258939  0.140787 -0.056087 -0.039890
  0Xe  4s        -0.001501 -0.000970 -1.053529 -0.108969  0.051999  0.024025
  0Xe  5s         0.002002  0.000630 -1.039799  0.002727 -0.008872  0.066224
  0Xe  6s        -0.000560  0.001165  0.149621  0.038701 -0.036403 -0.165458
  0Xe  1pz        0.000052  0.000014  0.000684 -0.000260  0.001165 -0.000177
  0Xe  1px       -0.000147 -0.000057  0.002822 -0.009301  0.000111 -0.000330
  0Xe  1py        0.000118  0.000062  0.000476 -0.009660  0.000007 -0.000000
  0Xe  2pz        0.000408  0.000011  0.007669 -0.003134  0.017470 -0.002600
  0Xe  2px       -0.001237 -0.000465  0.031560 -0.114638  0.001940 -0.002539
  0Xe  2py        0.000873  0.000509  0.005287 -0.119045 -0.000528 -0.001377
  0Xe  3pz       -0.000924 -0.005053 -0.006856  0.007448  0.052833 -0.007203
  0Xe  3px       -0.001961 -0.000462 -0.042968  0.159575  0.010505  0.039513
  0Xe  3py       -0.004492  0.000758 -0.006461  0.164854 -0.015751 -0.032121
  0Xe  4pz        0.001840  0.010264 -0.024298 -0.006444 -0.276032  0.045815
  0Xe  4px        0.005826  0.001853 -0.054038  0.152681 -0.044634 -0.126376
  0Xe  4py        0.009184 -0.002163 -0.017718  0.162042  0.055516  0.128722
  0Xe  5pz        0.000954  0.009080 -0.001528  0.000826  0.011562  0.009247
  0Xe  5px        0.004835  0.000654  0.012045  0.000294  0.002976 -0.018861
  0Xe  5py        0.007191 -0.001487 -0.007128  0.001559 -0.003693  0.022654
  0Xe  1dz2      -0.032708 -0.475122 -0.002428  0.017753  0.012694 -0.003865
  0Xe  1dxz      -0.167991  0.649666  0.001329 -0.001715 -0.000470 -0.003985
  0Xe  1dyz      -0.231846 -0.642710 -0.000414 -0.002134 -0.007085  0.005603
  0Xe  1dx2y2     1.027963 -0.067239  0.000510 -0.000764 -0.001322 -0.004948
  0Xe  1dxy      -0.049539 -0.276761  0.008241 -0.029364  0.001072 -0.009643
  0Xe  2dz2       0.004592  0.070346  0.004911 -0.043898 -0.034918  0.007037
  0Xe  2dxz       0.024760 -0.095860 -0.003717  0.004635 -0.003071  0.007120
  0Xe  2dyz       0.034201  0.094750  0.001573  0.005848  0.017965 -0.009881
  0Xe  2dx2y2    -0.151662  0.009902 -0.001067  0.004375  0.002545  0.008492
  0Xe  2dxy       0.007672  0.040851 -0.021173  0.071981 -0.001737  0.017742
  0Xe  3dz2      -0.001715 -0.027147  0.007510 -0.018273 -0.028906  0.051473
  0Xe  3dxz      -0.008549  0.040716  0.000000 -0.001164 -0.000649  0.044275
  0Xe  3dyz      -0.013757 -0.038897 -0.002440  0.000305  0.018847 -0.049585
  0Xe  3dx2y2     0.060960 -0.003808 -0.001308 -0.007220  0.003774  0.016796
  0Xe  3dxy       0.000311 -0.016381 -0.005990  0.029862  0.000067  0.111985
  0Xe  1f0       -0.000495  0.000722 -0.010980 -0.046047 -0.252919 -0.081930
  0Xe  1f+1      -0.000665 -0.000341  0.008776 -0.149536 -0.089614  0.048620
  0Xe  1f-1      -0.001283  0.000002  0.013296 -0.127115  0.172632 -0.045921
  0Xe  1f+2      -0.000808 -0.000015  0.000259  0.000684  0.023223 -0.000404
  0Xe  1f-2       0.000347 -0.001259 -0.005836  0.031269  0.078299 -0.133650
  0Xe  1f+3       0.000744  0.000423 -0.017093  0.151060 -0.018656 -0.189987
  0Xe  1f-3       0.000846  0.000168  0.009910 -0.201997  0.008937 -0.151314
  0Xe  2f0        0.000201 -0.000697 -0.004544 -0.116325 -0.678506 -0.237987
  0Xe  2f+1      -0.000310 -0.000172  0.004879 -0.388808 -0.233024  0.139953
  0Xe  2f-1       0.000167 -0.000023  0.005718 -0.333655  0.459858 -0.130871
  0Xe  2f+2       0.000043  0.000376  0.000063  0.001484  0.062996  0.000762
  0Xe  2f-2      -0.000305 -0.000514 -0.003181  0.082037  0.224479 -0.399416
  0Xe  2f+3      -0.001370  0.000065 -0.008513  0.393137 -0.055868 -0.580278
  0Xe  2f-3      -0.000206  0.000224  0.004659 -0.527077  0.024258 -0.460665
  1O   1s        -0.000148 -0.000072 -0.005266 -0.001346  0.000669 -0.008422
  1O   2s        -0.001387 -0.000518 -0.006205 -0.003335  0.001445 -0.032919
  1O   3s         0.005287  0.001803 -0.004144  0.011266 -0.009665  0.246104
  1O   1pz        0.000057  0.002158 -0.002059 -0.000340 -0.000363  0.002251
  1O   1px        0.001766  0.000430  0.004542  0.001484 -0.000198 -0.004840
  1O   1py        0.001340 -0.000632 -0.004970 -0.000094  0.000227  0.005612
  1O   2pz       -0.000281 -0.015219  0.005324  0.002519 -0.000627  0.032014
  1O   2px       -0.012366 -0.002679 -0.009296  0.000519  0.003308 -0.084320
  1O   2py       -0.008969  0.004079  0.011778  0.010026 -0.004101  0.081192
  1O   1dz2       0.000073  0.001267 -0.001488 -0.000340 -0.001926 -0.006036
  1O   1dxz       0.000467 -0.001581 -0.001083  0.001230  0.003688 -0.005286
  1O   1dyz       0.000599  0.001532  0.001133  0.002230 -0.004220  0.004914
  1O   1dx2y2    -0.002728  0.000167  0.000005 -0.008322  0.000002  0.000434
  1O   1dxy       0.000256  0.000811 -0.002697 -0.001276 -0.000817 -0.014173
  2F   1s         0.000284 -0.000004 -0.016246  0.037927 -0.000725  0.000296
  2F   2s         0.002911  0.000051 -0.033489  0.074095 -0.000266  0.002051
  2F   3s        -0.011911 -0.000250  0.044632 -0.183008  0.001485 -0.016026
  2F   1pz        0.000699 -0.000644 -0.000857  0.002178 -0.002804  0.001056
  2F   1px       -0.001954 -0.000085 -0.016724  0.027519 -0.000752 -0.003037
  2F   1py        0.001811  0.000086 -0.015293  0.024973  0.000341  0.003346
  2F   2pz        0.001893 -0.003138 -0.000458  0.006587 -0.012180  0.004369
  2F   2px       -0.003477 -0.000147 -0.031512  0.073017 -0.002954 -0.012065
  2F   2py        0.006963  0.000773 -0.026932  0.063493  0.001659  0.014324
  2F   1dz2       0.000135  0.000179 -0.000243 -0.000009  0.001480 -0.000969
  2F   1dxz       0.001178 -0.000152  0.000077  0.000213  0.006515 -0.001897
  2F   1dyz       0.001669  0.000286  0.000070  0.000088  0.005664 -0.001266
  2F   1dx2y2    -0.007134  0.000056  0.000413 -0.000019  0.002126  0.009172
  2F   1dxy       0.000373  0.000003  0.000318  0.000310 -0.001138 -0.001798
  3F   1s        -0.000246  0.000002 -0.001579 -0.006701  0.000489  0.000370
  3F   2s        -0.002515  0.000011  0.000457 -0.040478  0.002938  0.002870
  3F   3s         0.006535  0.000122 -0.017451  0.092931 -0.008672 -0.016220
  3F   1pz       -0.000350 -0.000415  0.000360  0.000245 -0.001863  0.000566
  3F   1px        0.001109 -0.000045  0.002241  0.006107 -0.000744 -0.001915
  3F   1py       -0.000896  0.000064  0.002643  0.006331 -0.000086  0.001522
  3F   2pz       -0.002779 -0.001674  0.000755  0.003188 -0.002193  0.000507
  3F   2px        0.009399 -0.000131 -0.004441  0.055500 -0.004491 -0.008539
  3F   2py       -0.006533  0.000326 -0.001734  0.054968 -0.003687 -0.002412
  3F   1dz2      -0.000177  0.000332 -0.000238 -0.009892  0.000519 -0.000012
  3F   1dxz      -0.000080 -0.000601  0.000079  0.001151 -0.002174  0.000179
  3F   1dyz      -0.000144  0.000389  0.000109  0.001108 -0.002110  0.001074
  3F   1dx2y2     0.000807  0.000013 -0.000123  0.000827 -0.000763 -0.003772
  3F   1dxy       0.000255  0.000197  0.000364  0.017177 -0.000797 -0.001038
  4F   1s        -0.000002  0.000301 -0.007767 -0.002578 -0.013840  0.000229
  4F   2s         0.000088  0.003103 -0.015602 -0.007884 -0.044632  0.001040
  4F   3s        -0.000360 -0.011285  0.008616  0.019567  0.182950 -0.011359
  4F   1pz       -0.000089  0.000392 -0.011007 -0.002593 -0.004846  0.000551
  4F   1px       -0.000322 -0.001171 -0.001765 -0.000155 -0.001311 -0.000636
  4F   1py       -0.000449  0.001163  0.003175  0.000872  0.000875  0.000383
  4F   2pz        0.000010  0.005294 -0.020247 -0.010902 -0.103570  0.001350
  4F   2px       -0.001551 -0.006661 -0.003475  0.004989 -0.019541 -0.001378
  4F   2py       -0.002263  0.006134  0.007616  0.009405  0.023049  0.000045
  4F   1dz2      -0.000064  0.001667  0.002234  0.001041  0.013827 -0.002043
  4F   1dxz       0.000168 -0.002282  0.000965 -0.005208  0.004361  0.002702
  4F   1dyz       0.000304  0.002330 -0.001121 -0.006202 -0.005301 -0.002404
  4F   1dx2y2    -0.000608  0.000247 -0.000036 -0.002191 -0.000211 -0.000483
  4F   1dxy      -0.000016  0.000938 -0.000171  0.000099 -0.001450 -0.002545
  5F   1s         0.000003 -0.000266 -0.001582 -0.000084  0.005265  0.000351
  5F   2s         0.000035 -0.002721  0.000378  0.001052  0.039388  0.002797
  5F   3s         0.000017  0.007246 -0.019082 -0.003822 -0.103282 -0.015696
  5F   1pz       -0.000064 -0.000211  0.003520  0.000528 -0.006077 -0.000100
  5F   1px       -0.000233  0.001023  0.000304  0.001060 -0.000578 -0.000597
  5F   1py       -0.000338 -0.001010 -0.000473  0.000850  0.001598  0.000507
  5F   2pz       -0.000232 -0.000770 -0.001977 -0.003230 -0.083156 -0.007690
  5F   2px       -0.000938  0.008293 -0.001006  0.001531 -0.010934 -0.000104
  5F   2py       -0.001414 -0.008347  0.002543  0.002742  0.021564  0.000278
  5F   1dz2      -0.000033 -0.000037  0.001129 -0.000548 -0.018749 -0.000111
  5F   1dxz       0.000015  0.000586  0.000270  0.001874 -0.005066 -0.001404
  5F   1dyz       0.000070 -0.000572 -0.000326  0.002461  0.008258  0.001423
  5F   1dx2y2    -0.000785 -0.000043  0.000007  0.000935  0.000635 -0.000041
  5F   1dxy       0.000006 -0.000198  0.000004 -0.000304  0.001366 -0.000345
                     18        19        20        21        22        23   
                  -2.74616  -2.74508  -2.74343  -2.73386  -2.65238  -2.60516
                   2.00000   2.00000   2.00000   2.00000   2.00000   2.00000
                  --------  --------  --------  --------  --------  --------
  0Xe  1s        -0.001923  0.001403 -0.000617 -0.000032 -0.028008 -0.014182
  0Xe  2s         0.005067 -0.003622  0.001611  0.000082  0.075015  0.038022
  0Xe  3s        -0.011312  0.008930 -0.003820 -0.000199 -0.164413 -0.083244
  0Xe  4s         0.007398 -0.008829  0.003310  0.000179  0.100271  0.049761
  0Xe  5s         0.015797  0.002787  0.001412  0.000194  0.054636  0.029068
  0Xe  6s        -0.042094  0.004486 -0.007691 -0.000822  0.002669  0.006667
  0Xe  1pz       -0.000066 -0.001139 -0.000258 -0.000001  0.000820  0.062709
  0Xe  1px        0.000478 -0.000129  0.000324  0.000002  0.042316  0.009109
  0Xe  1py       -0.000783  0.000195  0.000100  0.000001  0.043686 -0.009882
  0Xe  2pz       -0.000873 -0.014639 -0.003212 -0.000002  0.010054  0.772892
  0Xe  2px        0.006261 -0.001642  0.004084  0.000035  0.518202  0.112210
  0Xe  2py       -0.009882  0.002387  0.001414  0.000013  0.535095 -0.121721
  0Xe  3pz       -0.000425  0.008799  0.004696  0.000299 -0.020433 -1.521815
  0Xe  3px       -0.001220  0.001309 -0.004175  0.000263 -1.022662 -0.222909
  0Xe  3py        0.010058 -0.004172  0.001768 -0.000103 -1.052298  0.240537
  0Xe  4pz        0.008606  0.054728  0.002272 -0.000897  0.010977  0.532449
  0Xe  4px       -0.035793  0.004970 -0.010696 -0.001098  0.379915  0.085485
  0Xe  4py        0.026560  0.001271 -0.014300  0.000271  0.377753 -0.084505
  0Xe  5pz        0.003935  0.004478  0.000647 -0.000229 -0.001277 -0.108339
  0Xe  5px       -0.007762 -0.001275 -0.001320 -0.000273 -0.074573 -0.018274
  0Xe  5py        0.005273  0.001192 -0.001886  0.000052 -0.072823  0.018842
  0Xe  1dz2      -0.000907 -0.003745  0.000270 -0.000588 -0.020710  0.016276
  0Xe  1dxz      -0.003045 -0.003218  0.001422  0.001639  0.003429  0.014222
  0Xe  1dyz       0.002245 -0.002892  0.000809 -0.000279  0.003844 -0.007745
  0Xe  1dx2y2     0.004199 -0.000331 -0.000992  0.000910  0.008986  0.000899
  0Xe  1dxy      -0.001324 -0.001376  0.001128 -0.000511  0.034671 -0.000983
  0Xe  2dz2       0.001664  0.006551  0.000651  0.000836  0.040265 -0.029338
  0Xe  2dxz       0.004106  0.007603 -0.000519 -0.002251 -0.006827 -0.032444
  0Xe  2dyz      -0.002865  0.000889 -0.000555  0.000505 -0.007621  0.016147
  0Xe  2dx2y2    -0.006486  0.000705 -0.001959 -0.001249 -0.021880 -0.002343
  0Xe  2dxy       0.003021  0.001421 -0.002836  0.000686 -0.067154  0.003409
  0Xe  3dz2       0.012023  0.022020 -0.000160  0.000394 -0.003085  0.002997
  0Xe  3dxz       0.023387  0.008480 -0.014168 -0.001480  0.004116  0.031032
  0Xe  3dyz      -0.019905  0.025584 -0.010820 -0.000379  0.000560 -0.009257
  0Xe  3dx2y2    -0.019079  0.000804  0.020439 -0.000984  0.022256  0.003935
  0Xe  3dxy       0.018737  0.011779 -0.002395  0.000619  0.011560 -0.000184
  0Xe  1f0       -0.141189 -0.019780 -0.044172  0.012547 -0.010262  0.025986
  0Xe  1f+1       0.126240  0.137578 -0.092469  0.060592 -0.037929  0.013329
  0Xe  1f-1      -0.085714 -0.072123 -0.132190  0.079384 -0.033532 -0.021753
  0Xe  1f+2      -0.010277  0.032598 -0.132565 -0.200428  0.001485 -0.001826
  0Xe  1f-2      -0.093864  0.196336  0.042423  0.011332  0.007696 -0.001070
  0Xe  1f+3       0.114699 -0.038675 -0.087437  0.037743  0.040983 -0.000141
  0Xe  1f-3       0.064251 -0.049704  0.103858 -0.068350 -0.054719 -0.003306
  0Xe  2f0       -0.478617 -0.085362 -0.159187  0.048169 -0.035968  0.039837
  0Xe  2f+1       0.430489  0.471044 -0.328958  0.232172 -0.111928  0.025993
  0Xe  2f-1      -0.292977 -0.238671 -0.467183  0.304044 -0.098881 -0.037738
  0Xe  2f+2      -0.035235  0.114438 -0.467900 -0.767800  0.004051 -0.002683
  0Xe  2f-2      -0.314843  0.686776  0.152747  0.043552  0.020068  0.004350
  0Xe  2f+3       0.405251 -0.134156 -0.304319  0.144605  0.119274 -0.005365
  0Xe  2f-3       0.228157 -0.170570  0.365805 -0.261927 -0.162915 -0.007318
  1O   1s        -0.002359 -0.000435 -0.000218 -0.000017  0.002318  0.002706
  1O   2s        -0.009319 -0.002146 -0.000185 -0.000126  0.004563  0.004669
  1O   3s         0.059682  0.014307  0.000221  0.000716  0.005801  0.012725
  1O   1pz        0.000911 -0.002026 -0.000232 -0.000071  0.000951 -0.004119
  1O   1px       -0.001001 -0.000761  0.001695 -0.000047 -0.005905 -0.003813
  1O   1py        0.000057  0.000261  0.001698 -0.000008 -0.001091  0.004037
  1O   2pz       -0.000798  0.028786  0.003026  0.000606 -0.000160 -0.027610
  1O   2px       -0.013753  0.004405 -0.020710  0.000115 -0.019808 -0.009444
  1O   2py        0.028381  0.002249 -0.020386  0.000332 -0.017701  0.009891
  1O   1dz2      -0.005680  0.005177  0.000182  0.000336  0.000375 -0.003444
  1O   1dxz       0.000701 -0.007975 -0.003304  0.002364 -0.000868  0.004533
  1O   1dyz       0.000918  0.008554 -0.001110  0.002261 -0.001591 -0.005123
  1O   1dx2y2    -0.002519 -0.001751  0.012067  0.000864  0.005583 -0.000158
  1O   1dxy      -0.001708  0.003251  0.000036 -0.000233  0.000609 -0.001616
  2F   1s         0.000043  0.000238 -0.001029 -0.000022 -0.062408 -0.001870
  2F   2s        -0.001201  0.001342 -0.004786 -0.000129 -0.124319 -0.003002
  2F   3s         0.006501 -0.006046  0.015442  0.000477 -0.142783 -0.012131
  2F   1pz       -0.000742 -0.007465 -0.000722  0.000103 -0.005183  0.011575
  2F   1px        0.004646 -0.000183 -0.000861  0.000047 -0.065600 -0.000967
  2F   1py       -0.004479  0.000992 -0.000501 -0.000081 -0.059647 -0.004243
  2F   2pz       -0.004652 -0.039333 -0.000282  0.000650  0.003399 -0.034008
  2F   2px        0.021430  0.000814 -0.007871  0.000226  0.040766  0.000497
  2F   2py       -0.026439  0.005734 -0.001090 -0.000552  0.044779  0.011529
  2F   1dz2      -0.000586 -0.000113  0.003391 -0.002042 -0.001897  0.000810
  2F   1dxz      -0.000148  0.006711  0.002304  0.002593  0.000115  0.003929
  2F   1dyz       0.001563  0.006499 -0.001298 -0.002734  0.000172  0.004011
  2F   1dx2y2    -0.008378  0.001056 -0.000003 -0.000367  0.000421  0.001246
  2F   1dxy       0.000274 -0.001180  0.002189 -0.001148  0.003033 -0.000708
  3F   1s         0.000029 -0.000071  0.000270  0.000008  0.008721  0.000945
  3F   2s         0.000316 -0.000469  0.002252  0.000079 -0.001537  0.001427
  3F   3s        -0.002081  0.000996 -0.005445 -0.000255  0.093134  0.003886
  3F   1pz       -0.000350 -0.003754 -0.001621 -0.000063 -0.000745  0.000644
  3F   1px        0.002454 -0.000178  0.000466 -0.000040 -0.010005 -0.001016
  3F   1py       -0.002568  0.000671 -0.001038  0.000034 -0.010013 -0.001231
  3F   2pz       -0.001359 -0.013031 -0.007956 -0.000313  0.005282 -0.012527
  3F   2px        0.008121 -0.000364  0.001710 -0.000245  0.063125  0.001405
  3F   2py       -0.010043  0.002883 -0.006461  0.000102  0.051622  0.004500
  3F   1dz2       0.000029 -0.000558 -0.000488  0.000374 -0.006575 -0.000654
  3F   1dxz      -0.000276 -0.003138 -0.001373 -0.000515  0.001091 -0.003583
  3F   1dyz      -0.000301 -0.003142 -0.000788  0.000464  0.000951 -0.002961
  3F   1dx2y2     0.004199 -0.000681  0.000957  0.000023  0.001576 -0.000937
  3F   1dxy      -0.000476  0.000444 -0.000792  0.000201  0.011384  0.000711
  4F   1s        -0.000192  0.002837  0.000366 -0.000025  0.004001 -0.041530
  4F   2s         0.000450  0.011420  0.000823 -0.000182  0.008673 -0.074951
  4F   3s        -0.005838 -0.038687 -0.001646  0.000682  0.002699 -0.129393
  4F   1pz        0.001233  0.001804  0.000774 -0.000030  0.005859 -0.058868
  4F   1px       -0.003820 -0.000826  0.003378  0.000137  0.004851 -0.009735
  4F   1py        0.003374 -0.001933  0.003967  0.000017  0.002671  0.015196
  4F   2pz        0.008530  0.017145  0.003747 -0.000356 -0.001019  0.070479
  4F   2px       -0.021493 -0.003491  0.019344  0.000719 -0.016682  0.003609
  4F   2py        0.019453 -0.015802  0.022636  0.000200 -0.016876 -0.018015
  4F   1dz2      -0.005261 -0.001872 -0.001804 -0.000036 -0.000373 -0.002130
  4F   1dxz       0.007985  0.001206 -0.006428 -0.000585  0.002698 -0.000006
  4F   1dyz      -0.006504  0.002714 -0.007409 -0.000692  0.003179  0.001272
  4F   1dx2y2    -0.000171  0.000705 -0.003237  0.002857  0.000914  0.000223
  4F   1dxy      -0.002933 -0.003311 -0.000166 -0.000150 -0.000237 -0.000116
  5F   1s         0.000298 -0.001047 -0.000208  0.000014  0.000227  0.011447
  5F   2s         0.002175 -0.007379 -0.001596  0.000138  0.001797  0.007602
  5F   3s        -0.008496  0.017664  0.004102 -0.000430 -0.004295  0.082712
  5F   1pz        0.000719  0.001787  0.000767 -0.000003 -0.000431 -0.017351
  5F   1px       -0.003193 -0.000785  0.002579 -0.000102  0.000532 -0.001973
  5F   1py        0.002564  0.000662  0.003496 -0.000007  0.000754  0.004099
  5F   2pz       -0.001037  0.014835  0.004267 -0.000162 -0.005403  0.069561
  5F   2px       -0.010898 -0.001568  0.009284 -0.000496 -0.009679  0.016941
  5F   2py        0.008837  0.003374  0.012730 -0.000035 -0.007570 -0.019708
  5F   1dz2       0.001776  0.003049  0.001288  0.000004 -0.001260  0.009304
  5F   1dxz      -0.003933 -0.000279  0.003140  0.000072 -0.003051  0.003398
  5F   1dyz       0.003051 -0.000588  0.003708  0.000183 -0.002200 -0.004735
  5F   1dx2y2     0.000317  0.000018  0.001225 -0.000790 -0.001230 -0.000332
  5F   1dxy       0.001178  0.000957  0.000050  0.000058  0.000243 -0.000941
                     24        25        26        27        28        29   
                  -2.58395  -1.83770  -1.69933  -1.44409  -1.43470  -1.42514
                   2.00000   2.00000   2.00000   2.00000   2.00000   2.00000
                  --------  --------  --------  --------  --------  --------
  0Xe  1s         0.019224 -0.037147 -0.055831  0.100029 -0.048130  0.046426
  0Xe  2s        -0.051147  0.099705  0.149570 -0.269262  0.129557 -0.125020
  0Xe  3s         0.116279 -0.234515 -0.357334  0.647677 -0.311826  0.300788
  0Xe  4s        -0.085485  0.174182  0.276399 -0.492864  0.237562 -0.228303
  0Xe  5s         0.052154  0.025211  0.008359 -0.131741  0.062586 -0.065561
  0Xe  6s        -0.189399  0.014842  0.084024  0.056669 -0.025220  0.033361
  0Xe  1pz        0.013436  0.003456 -0.011198  0.004026 -0.003115  0.002020
  0Xe  1px       -0.045756 -0.010834 -0.001423  0.011136 -0.005458  0.006969
  0Xe  1py        0.043847 -0.014483 -0.006020 -0.001974  0.000523 -0.001586
  0Xe  2pz        0.166188  0.046767 -0.154150  0.056653 -0.044454  0.028536
  0Xe  2px       -0.565650 -0.146059 -0.019103  0.157216 -0.077270  0.099162
  0Xe  2py        0.542131 -0.195581 -0.082741 -0.028894  0.007806 -0.023044
  0Xe  3pz       -0.325344 -0.108550  0.352720 -0.128993  0.099855 -0.064909
  0Xe  3px        1.115433  0.318499  0.034718 -0.363873  0.178110 -0.229750
  0Xe  3py       -1.066221  0.433957  0.188152  0.076085 -0.022060  0.057867
  0Xe  4pz        0.112837  0.064056 -0.172354  0.017672 -0.024940  0.009248
  0Xe  4px       -0.407312 -0.125663  0.039293  0.108919 -0.051558  0.083573
  0Xe  4py        0.378173 -0.208243 -0.098945 -0.098419  0.038726 -0.056099
  0Xe  5pz       -0.013205 -0.011146  0.036931 -0.009799  0.012957 -0.006050
  0Xe  5px        0.050371  0.025863 -0.004578 -0.021758  0.011462 -0.027578
  0Xe  5py       -0.047953  0.043033  0.021212  0.012656 -0.004744  0.002222
  0Xe  1dz2       0.011275 -0.200087  0.210018  0.056407  0.031390  0.017449
  0Xe  1dxz       0.006384  0.001106  0.100371  0.198833  0.279582  0.060580
  0Xe  1dyz      -0.004806  0.044793 -0.133386  0.040940  0.323326  0.002702
  0Xe  1dx2y2    -0.005632  0.015180  0.003781  0.185698 -0.032483 -0.426128
  0Xe  1dxy       0.021637  0.238685  0.177748  0.112219 -0.076556  0.083809
  0Xe  2dz2      -0.026389  0.440757 -0.468260 -0.124682 -0.073141 -0.037908
  0Xe  2dxz      -0.014592 -0.001990 -0.220797 -0.454548 -0.634721 -0.138953
  0Xe  2dyz       0.011042 -0.099021  0.295649 -0.092194 -0.735840 -0.005448
  0Xe  2dx2y2     0.012902 -0.031327 -0.007647 -0.423365  0.074267  0.968216
  0Xe  2dxy      -0.051172 -0.521641 -0.388854 -0.266037  0.179678 -0.196134
  0Xe  3dz2       0.060920 -0.045915  0.010223 -0.021822  0.007274 -0.011706
  0Xe  3dxz       0.038774 -0.003309 -0.008821 -0.023102 -0.003428 -0.012355
  0Xe  3dyz      -0.037415  0.012939 -0.001099  0.016805 -0.020877  0.008014
  0Xe  3dx2y2    -0.011354 -0.007932 -0.002958 -0.005040  0.001823  0.024354
  0Xe  3dxy       0.115786  0.028330 -0.017906 -0.066085  0.030265 -0.035101
  0Xe  1f0       -0.012165  0.021655 -0.013499  0.035679  0.001400  0.016428
  0Xe  1f+1       0.008353  0.023529 -0.017126 -0.009570 -0.006026 -0.008264
  0Xe  1f-1      -0.005526  0.008265  0.029708 -0.009100 -0.007747  0.002250
  0Xe  1f+2      -0.000633 -0.001546  0.001574 -0.005027 -0.009473 -0.002567
  0Xe  1f-2      -0.012518 -0.003249  0.019393  0.011226 -0.025403  0.005915
  0Xe  1f+3      -0.012349 -0.013835  0.011297  0.036212 -0.013812 -0.017212
  0Xe  1f-3      -0.008486  0.030836  0.021793  0.015750 -0.006601  0.005283
  0Xe  2f0       -0.014340 -0.038256  0.029720 -0.058089  0.003470 -0.026147
  0Xe  2f+1       0.011281 -0.056868  0.018047  0.023335  0.001333  0.015131
  0Xe  2f-1      -0.012005 -0.030150 -0.058113  0.033230 -0.000598  0.007098
  0Xe  2f+2      -0.002382  0.002600 -0.003239  0.006402  0.010362  0.002866
  0Xe  2f-2      -0.013585  0.010721 -0.026941 -0.018422  0.034979 -0.009141
  0Xe  2f+3      -0.004156  0.044093 -0.004044 -0.067069  0.027375  0.010353
  0Xe  2f-3      -0.004550 -0.073962 -0.043303 -0.002261 -0.000084  0.004888
  1O   1s         0.029246  0.017285  0.074212  0.139898 -0.064263  0.063298
  1O   2s         0.032399  0.040911  0.171495  0.303862 -0.138990  0.138409
  1O   3s         0.267371 -0.014040 -0.030324  0.061612 -0.032190  0.022351
  1O   1pz        0.014237  0.005852  0.029362  0.037031 -0.014251  0.016848
  1O   1px       -0.033618 -0.013510 -0.064716 -0.118691  0.063541 -0.003720
  1O   1py        0.035408  0.019359  0.069143  0.096793 -0.035765  0.089557
  1O   2pz        0.043517 -0.008793 -0.002601 -0.001027  0.000283 -0.001511
  1O   2px       -0.087491  0.020392  0.028839 -0.023549  0.016763  0.015912
  1O   2py        0.099727  0.000169 -0.026137  0.007119 -0.001243  0.022375
  1O   1dz2      -0.001465  0.001697 -0.000613 -0.009416  0.004300 -0.004281
  1O   1dxz      -0.001946  0.001907 -0.001496 -0.007599  0.001292  0.000521
  1O   1dyz       0.002450 -0.000833  0.002143  0.003718 -0.003073  0.005812
  1O   1dx2y2    -0.001020 -0.003480 -0.000693  0.003924 -0.005670 -0.013914
  1O   1dxy      -0.003632 -0.000025 -0.000528 -0.017847  0.008869 -0.007739
  2F   1s         0.000738 -0.186889 -0.075141  0.117723 -0.055930  0.052936
  2F   2s        -0.001101 -0.394831 -0.154346  0.234918 -0.111770  0.104538
  2F   3s         0.006288 -0.128285 -0.088348  0.235473 -0.113117  0.114832
  2F   1pz        0.002718 -0.008658 -0.011674  0.063050  0.142267  0.018440
  2F   1px       -0.007147 -0.145155 -0.048998  0.086044 -0.033652 -0.082112
  2F   1py        0.009384 -0.137153 -0.049160 -0.014612 -0.012267  0.120378
  2F   2pz       -0.008008 -0.004046  0.013587 -0.030311 -0.055671 -0.008910
  2F   2px        0.020113  0.012344  0.022344 -0.088701  0.039321  0.005684
  2F   2py       -0.034409  0.010863  0.024175 -0.032687  0.024601 -0.065425
  2F   1dz2      -0.001400  0.010232  0.004181 -0.009559  0.007015 -0.004706
  2F   1dxz       0.000414 -0.000753 -0.002674  0.008040  0.015239  0.001498
  2F   1dyz       0.001612 -0.001093 -0.001145  0.007424  0.013933  0.003485
  2F   1dx2y2    -0.006046 -0.001195 -0.000326  0.012144 -0.002998 -0.020661
  2F   1dxy       0.000512 -0.016589 -0.010939  0.016051 -0.009511  0.009934
  3F   1s        -0.000997 -0.045718 -0.015382 -0.017574  0.005117 -0.000790
  3F   2s        -0.000716 -0.078821 -0.026256 -0.042119  0.013452 -0.003303
  3F   3s        -0.015638 -0.118787 -0.032887  0.003581 -0.005592  0.006197
  3F   1pz        0.000142  0.003058  0.000360 -0.007171 -0.022254 -0.002052
  3F   1px        0.001372  0.041149  0.011797  0.006249 -0.002041  0.016879
  3F   1py        0.001418  0.038200  0.010532  0.017188 -0.003534 -0.015277
  3F   2pz       -0.004076 -0.005893  0.002323  0.010078  0.023058  0.002505
  3F   2px        0.006593 -0.050511 -0.015956  0.010910 -0.005146 -0.011196
  3F   2py       -0.017150 -0.042004 -0.012146  0.002623 -0.005666  0.023157
  3F   1dz2      -0.000460  0.006453  0.001548  0.000335  0.000926 -0.000164
  3F   1dxz      -0.000858 -0.001208  0.000230  0.002399  0.006451  0.000219
  3F   1dyz      -0.000676 -0.001249  0.000796  0.002194  0.005893  0.000991
  3F   1dx2y2     0.005002 -0.001492 -0.000894  0.002540 -0.000131 -0.009134
  3F   1dxy      -0.001210 -0.010693 -0.003905 -0.000425 -0.000663  0.001148
  4F   1s         0.001298  0.072844 -0.167432  0.131324 -0.056545  0.061741
  4F   2s         0.000375  0.154665 -0.344442  0.260215 -0.111410  0.122214
  4F   3s         0.002868  0.055174 -0.175222  0.209339 -0.094568  0.100348
  4F   1pz        0.003335  0.078327 -0.159383  0.073579 -0.025286  0.029168
  4F   1px       -0.003530  0.009438 -0.024760  0.046420  0.044659  0.002215
  4F   1py        0.003380 -0.022675  0.035805  0.004129  0.059567 -0.021787
  4F   2pz       -0.015801  0.001027  0.047714 -0.068297  0.027812 -0.030127
  4F   2px        0.022414  0.007902  0.008527 -0.035342 -0.017168 -0.005815
  4F   2py       -0.018947  0.010298 -0.005695  0.009279 -0.035330  0.017810
  4F   1dz2       0.003784  0.002910 -0.017018  0.016741 -0.006274  0.006909
  4F   1dxz      -0.004142 -0.000972 -0.005123  0.012027  0.006438  0.001490
  4F   1dyz       0.003329 -0.003203  0.006302 -0.003499  0.012710 -0.006732
  4F   1dx2y2     0.000412 -0.000793  0.000145  0.000665  0.004877  0.001572
  4F   1dxy       0.000466 -0.001297  0.000232 -0.002711  0.000029 -0.001233
  5F   1s        -0.001256  0.025541 -0.051911 -0.008261 -0.009907 -0.003909
  5F   2s        -0.001030  0.045825 -0.093156 -0.024022 -0.016780 -0.011259
  5F   3s        -0.017244  0.064400 -0.110827  0.016090 -0.024430  0.007516
  5F   1pz        0.002303 -0.031153  0.053708  0.008534  0.004141  0.004623
  5F   1px        0.000360 -0.005122  0.008551 -0.006888 -0.014262  0.003282
  5F   1py       -0.000498  0.007081 -0.013649 -0.008614 -0.016623  0.002948
  5F   2pz       -0.012916  0.029385 -0.054117  0.019259 -0.013386  0.008943
  5F   2px        0.011675  0.009958 -0.010750  0.008451  0.014319 -0.001461
  5F   2py       -0.010095 -0.002496  0.016547  0.004435  0.017769 -0.004040
  5F   1dz2      -0.002946  0.005445 -0.010189  0.002277 -0.001239  0.000593
  5F   1dxz       0.002898  0.002594 -0.003477  0.003016  0.005282 -0.001200
  5F   1dyz      -0.002568 -0.000843  0.005646  0.002052  0.006048 -0.001702
  5F   1dx2y2    -0.000152  0.000403  0.000481  0.000655  0.002690  0.000597
  5F   1dxy      -0.002125 -0.001092  0.000610 -0.000301 -0.000402 -0.000021
[...]
     13       0.000000   0.000000   0.000000   0.000000   0.000000   0.000000
     14       0.000000   0.000000   0.000000   0.000000   0.000000   0.000000
     15       0.000000   0.000000   0.000000   0.000000   0.000000   0.000000
     16       0.000000   0.000000   0.000000   0.000000   0.000000   0.000000
     17       0.000000   0.000000   0.000000   0.000000   0.000000   0.000000
                 12         13         14         15         16         17    
      0      -0.000049   0.000000   0.000000   0.000000   0.000000   0.000000
      1      -0.000001   0.000000   0.000000   0.000000   0.000000   0.000000
      2      -0.000002   0.000000   0.000000   0.000000   0.000000   0.000000
      3      -0.000065   0.000000   0.000000   0.000000   0.000000   0.000000
      4      -0.000011   0.000000   0.000000   0.000000   0.000000   0.000000
      5      -0.000024   0.000000   0.000000   0.000000   0.000000   0.000000
      6      -0.000041   0.000000   0.000000   0.000000   0.000000   0.000000
      7       0.000035   0.000000   0.000000   0.000000   0.000000   0.000000
      8      -0.000034   0.000000   0.000000   0.000000   0.000000   0.000000
      9      -0.000012   0.000000   0.000000   0.000000   0.000000   0.000000
     10       0.000030   0.000000   0.000000   0.000000   0.000000   0.000000
     11       0.000061   0.000000   0.000000   0.000000   0.000000   0.000000
     12       0.000172   0.000000   0.000000   0.000000   0.000000   0.000000
     13       0.000000   0.000000   0.000000   0.000000   0.000000   0.000000
     14       0.000000   0.000000   0.000000   0.000000   0.000000   0.000000
     15       0.000000   0.000000   0.000000   0.000000   0.000000   0.000000
     16       0.000000   0.000000   0.000000   0.000000   0.000000   0.000000
     17       0.000000   0.000000   0.000000   0.000000   0.000000   0.000000

done   (      0.3 sec)
gCP correction in the Hessian                    ...  
-----------------
gCP hessian 
from Numerical Differentiation: 
-----------------
                  0          1          2          3          4          5    
      0      -0.001319   0.000631   0.000247  -0.000203   0.001519   0.000584
      1       0.000631  -0.001342  -0.000249   0.001519  -0.000256  -0.000595
      2       0.000247  -0.000249  -0.000796   0.000584  -0.000595   0.001061
      3      -0.000203   0.001519   0.000584   0.000323  -0.001801  -0.000692
      4       0.001519  -0.000256  -0.000595  -0.001801   0.000387   0.000705
      5       0.000584  -0.000595   0.001061  -0.000692   0.000705  -0.001175
      6      -0.000047  -0.001163  -0.000117   0.000221  -0.000039  -0.000009
      7      -0.001163  -0.000247  -0.000128  -0.000039  -0.000444  -0.000153
      8      -0.000117  -0.000128   0.001008  -0.000009  -0.000153   0.000189
      9      -0.000365  -0.001152  -0.000070  -0.000467  -0.000016   0.000099
     10      -0.001152   0.000062  -0.000058  -0.000016   0.000223   0.000002
     11      -0.000070  -0.000058   0.001017   0.000099   0.000002   0.000209
     12       0.000998   0.000041  -0.000223   0.000131   0.000079   0.000225
     13       0.000041   0.000943   0.000416   0.000079   0.000156  -0.000192
     14      -0.000223   0.000416  -0.001228   0.000225  -0.000192  -0.000322
     15       0.000936   0.000124  -0.000421  -0.000006   0.000258  -0.000206
     16       0.000124   0.000840   0.000613   0.000258  -0.000066   0.000232
     17      -0.000421   0.000613  -0.001062  -0.000206   0.000232   0.000038
                  6          7          8          9         10         11    
      0      -0.000047  -0.001163  -0.000117  -0.000365  -0.001152  -0.000070
      1      -0.001163  -0.000247  -0.000128  -0.001152   0.000062  -0.000058
      2      -0.000117  -0.000128   0.001008  -0.000070  -0.000058   0.001017
      3       0.000221  -0.000039  -0.000009  -0.000467  -0.000016   0.000099
      4      -0.000039  -0.000444  -0.000153  -0.000016   0.000223   0.000002
      5      -0.000009  -0.000153   0.000189   0.000099   0.000002   0.000209
      6      -0.000254   0.001754   0.000277  -0.000119  -0.000207  -0.000017
      7       0.001754   0.000578   0.000161  -0.000207  -0.000098  -0.000016
      8       0.000277   0.000161  -0.001204  -0.000017  -0.000016   0.000097
      9      -0.000119  -0.000207  -0.000017   0.000753   0.001721   0.000121
     10      -0.000207  -0.000098  -0.000016   0.001721  -0.000396  -0.000064
     11      -0.000017  -0.000016   0.000097   0.000121  -0.000064  -0.001235
     12       0.000177  -0.000197   0.000195   0.000021  -0.000148  -0.000328
     13      -0.000197  -0.000012   0.000309  -0.000148   0.000222  -0.000173
     14       0.000195   0.000309  -0.000005  -0.000328  -0.000173  -0.000085
     15       0.000022  -0.000148  -0.000328   0.000176  -0.000198   0.000195
     16      -0.000148   0.000223  -0.000174  -0.000198  -0.000013   0.000309
     17      -0.000328  -0.000174  -0.000085   0.000195   0.000309  -0.000004
                 12         13         14         15         16         17    
      0       0.000998   0.000041  -0.000223   0.000936   0.000124  -0.000421
      1       0.000041   0.000943   0.000416   0.000124   0.000840   0.000613
      2      -0.000223   0.000416  -0.001228  -0.000421   0.000613  -0.001062
      3       0.000131   0.000079   0.000225  -0.000006   0.000258  -0.000206
      4       0.000079   0.000156  -0.000192   0.000258  -0.000066   0.000232
      5       0.000225  -0.000192  -0.000322  -0.000206   0.000232   0.000038
      6       0.000177  -0.000197   0.000195   0.000022  -0.000148  -0.000328
      7      -0.000197  -0.000012   0.000309  -0.000148   0.000223  -0.000174
      8       0.000195   0.000309  -0.000005  -0.000328  -0.000174  -0.000085
      9       0.000021  -0.000148  -0.000328   0.000176  -0.000198   0.000195
     10      -0.000148   0.000222  -0.000173  -0.000198  -0.000013   0.000309
     11      -0.000328  -0.000173  -0.000085   0.000195   0.000309  -0.000004
     12      -0.001417   0.000211   0.000189   0.000090   0.000014  -0.000058
     13       0.000211  -0.001386  -0.000452   0.000014   0.000076   0.000092
     14       0.000189  -0.000452   0.001926  -0.000058   0.000092  -0.000286
     15       0.000090   0.000014  -0.000058  -0.001218  -0.000049   0.000818
     16       0.000014   0.000076   0.000092  -0.000049  -0.001060  -0.001073
     17      -0.000058   0.000092  -0.000286   0.000818  -0.001073   0.001399

done   (      0.0 sec)
Dipol derivatives                                ... done   (      0.1 sec)

-------
TIMINGS
-------

Total SCF Hessian time: 0 days 0 hours 0 min 37 sec 
                   F(y)            G[Q(x)]           CPSCF         Total
Table01         0.9  0.02         0.8  0.02        17.6  0.47        37.7 
Table01a        0.9  0.02,        0.8, 0.02,       17.6  0.47        37.7 
Table01b        0.9   2.4,        0.8,  2.2,       17.6  46.6        37.7 

Writing the Hessian file to the disk             ... done


Maximum memory used throughout the entire calculation: 183.6 MB

-----------------------
VIBRATIONAL FREQUENCIES
-----------------------

Scaling factor for frequencies =  1.000000000  (already applied!)

   0:         0.00 cm**-1
   1:         0.00 cm**-1
   2:         0.00 cm**-1
   3:         0.00 cm**-1
   4:         0.00 cm**-1
   5:         0.00 cm**-1
   6:       142.97 cm**-1
   7:       150.84 cm**-1
   8:       152.89 cm**-1
   9:       209.39 cm**-1
  10:       224.69 cm**-1
  11:       303.66 cm**-1
  12:       305.85 cm**-1
  13:       467.05 cm**-1
  14:       495.64 cm**-1
  15:       565.34 cm**-1
  16:       565.45 cm**-1
  17:       867.69 cm**-1


------------
NORMAL MODES
------------

These modes are the Cartesian displacements weighted by the diagonal matrix
M(i,i)=1/sqrt(m[i]) where m[i] is the mass of the displaced atom
Thus, these vectors are normalized but *not* orthogonal

                  0          1          2          3          4          5    
      0       0.000000   0.000000   0.000000   0.000000   0.000000   0.000000
      1       0.000000   0.000000   0.000000   0.000000   0.000000   0.000000
      2       0.000000   0.000000   0.000000   0.000000   0.000000   0.000000
      3       0.000000   0.000000   0.000000   0.000000   0.000000   0.000000
      4       0.000000   0.000000   0.000000   0.000000   0.000000   0.000000
      5       0.000000   0.000000   0.000000   0.000000   0.000000   0.000000
      6       0.000000   0.000000   0.000000   0.000000   0.000000   0.000000
      7       0.000000   0.000000   0.000000   0.000000   0.000000   0.000000
      8       0.000000   0.000000   0.000000   0.000000   0.000000   0.000000
      9       0.000000   0.000000   0.000000   0.000000   0.000000   0.000000
     10       0.000000   0.000000   0.000000   0.000000   0.000000   0.000000
     11       0.000000   0.000000   0.000000   0.000000   0.000000   0.000000
     12       0.000000   0.000000   0.000000   0.000000   0.000000   0.000000
     13       0.000000   0.000000   0.000000   0.000000   0.000000   0.000000
     14       0.000000   0.000000   0.000000   0.000000   0.000000   0.000000
     15       0.000000   0.000000   0.000000   0.000000   0.000000   0.000000
     16       0.000000   0.000000   0.000000   0.000000   0.000000   0.000000
     17       0.000000   0.000000   0.000000   0.000000   0.000000   0.000000
                  6          7          8          9         10         11    
      0      -0.011043   0.081806   0.019555  -0.002964   0.159779  -0.031470
      1      -0.010360   0.074934  -0.023418   0.004383  -0.165390  -0.001446
      2       0.002214   0.001721   0.107071   0.000298  -0.063110  -0.082627
      3      -0.020065   0.163157   0.041303  -0.001431   0.172429   0.315659
      4      -0.019503   0.154787  -0.046124   0.005648  -0.181877   0.007805
      5       0.003177   0.001273   0.223047   0.002664  -0.076517   0.790415
      6      -0.370394   0.149515  -0.080322   0.087365  -0.309869   0.047706
      7       0.327399   0.082315   0.141874  -0.126835   0.325394  -0.122924
      8       0.124859   0.015535  -0.625750   0.481981   0.140742   0.056308
      9      -0.333150  -0.004281  -0.086196  -0.058806  -0.326310  -0.094226
     10       0.328456   0.243559   0.153306   0.104587   0.314388   0.020031
     11       0.103403   0.087065  -0.630744  -0.479382   0.110936   0.114855
     12       0.407435  -0.430661   0.082161   0.357850  -0.297019   0.202654
     13      -0.283182  -0.487332  -0.126519   0.337894   0.337889  -0.156459
     14      -0.110418  -0.053837   0.132772   0.023412   0.135755  -0.213440
     15       0.389327  -0.417358  -0.085577  -0.364721  -0.316287  -0.204468
     16      -0.284651  -0.486785   0.032032  -0.350691   0.318545   0.262770
     17      -0.135823  -0.061731   0.195890  -0.030315   0.113172  -0.052306
                 12         13         14         15         16         17    
      0       0.056109  -0.000126  -0.005313   0.066426  -0.151883   0.084381
      1       0.063488  -0.000181   0.005812   0.130662  -0.097687  -0.085824
      2      -0.022922  -0.000192   0.002096  -0.170467  -0.134080  -0.032581
      3      -0.542261  -0.000009   0.021198  -0.028373   0.061635  -0.670806
      4      -0.617917  -0.000216  -0.021302  -0.053207   0.041191   0.682324
      5       0.221764  -0.000068  -0.008057   0.070000   0.054484   0.260043
      6      -0.100391  -0.351947   0.365662  -0.271173   0.401039   0.007298
      7       0.299901  -0.353351   0.338056  -0.287033   0.388755   0.016076
      8       0.117109  -0.029854   0.025267   0.019709   0.064575   0.002664
      9       0.309344   0.370468  -0.357555  -0.281536   0.419169  -0.016500
     10      -0.118333   0.334651  -0.350008  -0.271214   0.368757  -0.006966
     11      -0.043067   0.025393  -0.031603   0.023432   0.058771   0.000655
     12       0.000611   0.063620   0.077526   0.049758   0.081882  -0.002686
     13      -0.122161  -0.104422  -0.119797  -0.139549  -0.051861   0.001493
     14      -0.078686   0.484285   0.480032   0.540920   0.381719   0.017661
     15      -0.140691  -0.081261  -0.066763   0.067761   0.095707  -0.006377
     16       0.022189   0.124552   0.109520  -0.160436  -0.065200   0.007938
     17      -0.023692  -0.478437  -0.481396   0.535130   0.375715  -0.014799


-----------
IR SPECTRUM
-----------

 Mode    freq (cm**-1)   T**2         TX         TY         TZ
-------------------------------------------------------------------
   6:       142.97    0.039544  ( -0.149166  -0.127139   0.033598)
   7:       150.84    1.764527  (  1.003187   0.870712   0.002157)
   8:       152.89    1.740909  (  0.238942  -0.282668   1.266457)
   9:       209.39    0.015807  ( -0.087882   0.087820   0.019281)
  10:       224.69   25.502129  (  3.398504  -3.490634  -1.329575)
  11:       303.66    3.611010  ( -0.672651  -0.044783  -1.776667)
  12:       305.85    3.532588  (  1.201977   1.357345  -0.495432)
  13:       467.05    0.000143  ( -0.005775  -0.010413  -0.000934)
  14:       495.64    2.773036  (  1.140472  -1.124352  -0.456280)
  15:       565.34  186.890089  (  4.035368   7.955884 -10.359044)
  16:       565.45  186.946190  ( -9.232091  -5.934781  -8.154328)
  17:       867.69   22.706556  (  3.224906  -3.281181  -1.241122)

The first frequency considered to be a vibration is 6
The total number of vibrations considered is 12


--------------------------
THERMOCHEMISTRY AT 298.15K
--------------------------

Temperature         ... 298.15 K
Pressure            ... 1.00 atm
Total Mass          ... 223.29 AMU

Throughout the following assumptions are being made:
  (1) The electronic state is orbitally nondegenerate
  (2) There are no thermally accessible electronically excited states
  (3) Hindered rotations indicated by low frequency modes are not
      treated as such but are treated as vibrations and this may
      cause some error
  (4) All equations used are the standard statistical mechanics
      equations for an ideal gas
  (5) All vibrations are strictly harmonic

freq.     142.97  E(vib)   ...       0.41 
freq.     150.84  E(vib)   ...       0.40 
freq.     152.89  E(vib)   ...       0.40 
freq.     209.39  E(vib)   ...       0.34 
freq.     224.69  E(vib)   ...       0.33 
freq.     303.66  E(vib)   ...       0.26 
freq.     305.85  E(vib)   ...       0.26 
freq.     467.05  E(vib)   ...       0.16 
freq.     495.64  E(vib)   ...       0.14 
freq.     565.34  E(vib)   ...       0.11 
freq.     565.45  E(vib)   ...       0.11 
freq.     867.69  E(vib)   ...       0.04 

------------
INNER ENERGY
------------

The inner energy is: U= E(el) + E(ZPE) + E(vib) + E(rot) + E(trans)
    E(el)   - is the total energy from the electronic structure calculation
              = E(kin-el) + E(nuc-el) + E(el-el) + E(nuc-nuc)
    E(ZPE)  - the the zero temperature vibrational energy from the frequency calculation
    E(vib)  - the the finite temperature correction to E(ZPE) due to population
              of excited vibrational states
    E(rot)  - is the rotational thermal energy
    E(trans)- is the translational thermal energy

Summary of contributions to the inner energy U:
Electronic energy                ...   -803.05579748 Eh
Zero point energy                ...      0.01014119 Eh       6.36 kcal/mol
Thermal vibrational correction   ...      0.00473178 Eh       2.97 kcal/mol
Thermal rotational correction    ...      0.00141627 Eh       0.89 kcal/mol
Thermal translational correction ...      0.00141627 Eh       0.89 kcal/mol
-----------------------------------------------------------------------
Total thermal energy                   -803.03809196 Eh


Summary of corrections to the electronic energy:
(perhaps to be used in another calculation)
Total thermal correction                  0.00756433 Eh       4.75 kcal/mol
Non-thermal (ZPE) correction              0.01014119 Eh       6.36 kcal/mol
-----------------------------------------------------------------------
Total correction                          0.01770552 Eh      11.11 kcal/mol


--------
ENTHALPY
--------

The enthalpy is H = U + kB*T
                kB is Boltzmann's constant
Total free energy                 ...   -803.03809196 Eh 
Thermal Enthalpy correction       ...      0.00094421 Eh       0.59 kcal/mol
-----------------------------------------------------------------------
Total Enthalpy                    ...   -803.03714775 Eh


Note: Only C1 symmetry has been detected, increase convergence thresholds 
      if your molecule has a higher symmetry. Symmetry factor of 1.0 is   
      used for the rotational entropy correction. 
 

Note: Rotational entropy computed according to Herzberg 
Infrared and Raman Spectra, Chapter V,1, Van Nostrand Reinhold, 1945 
Point Group:  C1, Symmetry Number:   1  
Rotational constants in cm-1:     0.084896     0.084855     0.056440 

Vibrational entropy computed according to the QRRHO of S. Grimme
Chem.Eur.J. 2012 18 9955


-------
ENTROPY
-------

The entropy contributions are T*S = T*(S(el)+S(vib)+S(rot)+S(trans))
     S(el)   - electronic entropy
     S(vib)  - vibrational entropy
     S(rot)  - rotational entropy
     S(trans)- translational entropy
The entropies will be listed as mutliplied by the temperature to get
units of energy

Electronic entropy                ...      0.00000000 Eh      0.00 kcal/mol
Vibrational entropy               ...      0.00822743 Eh      5.16 kcal/mol
Rotational entropy                ...      0.01319677 Eh      8.28 kcal/mol
Translational entropy             ...      0.02000894 Eh     12.56 kcal/mol
-----------------------------------------------------------------------
Final entropy term                ...      0.04143314 Eh     26.00 kcal/mol

In case the symmetry of your molecule has not been determined correctly
or in case you have a reason to use a different symmetry number we print 
out the resulting rotational entropy values for sn=1,12 :
 --------------------------------------------------------
|  sn= 1 | S(rot)=       0.01319677 Eh      8.28 kcal/mol|
|  sn= 2 | S(rot)=       0.01254231 Eh      7.87 kcal/mol|
|  sn= 3 | S(rot)=       0.01215948 Eh      7.63 kcal/mol|
|  sn= 4 | S(rot)=       0.01188785 Eh      7.46 kcal/mol|
|  sn= 5 | S(rot)=       0.01167716 Eh      7.33 kcal/mol|
|  sn= 6 | S(rot)=       0.01150502 Eh      7.22 kcal/mol|
|  sn= 7 | S(rot)=       0.01135947 Eh      7.13 kcal/mol|
|  sn= 8 | S(rot)=       0.01123340 Eh      7.05 kcal/mol|
|  sn= 9 | S(rot)=       0.01112219 Eh      6.98 kcal/mol|
|  sn=10 | S(rot)=       0.01102271 Eh      6.92 kcal/mol|
|  sn=11 | S(rot)=       0.01093272 Eh      6.86 kcal/mol|
|  sn=12 | S(rot)=       0.01085056 Eh      6.81 kcal/mol|
 --------------------------------------------------------


-------------------
GIBBS FREE ENERGY
-------------------

The Gibbs free energy is G = H - T*S

Total enthalpy                    ...   -803.03714775 Eh 
Total entropy correction          ...     -0.04143314 Eh    -26.00 kcal/mol
-----------------------------------------------------------------------
Final Gibbs free energy         ...   -803.07858089 Eh

For completeness - the Gibbs free energy minus the electronic energy
G-E(el)                           ...     -0.02278341 Eh    -14.30 kcal/mol


Timings for individual modules:

Sum of individual times         ...      206.205 sec (=   3.437 min)
GTO integral calculation        ...       16.129 sec (=   0.269 min)   7.8 %
SCF iterations                  ...      116.327 sec (=   1.939 min)  56.4 %
SCF Gradient evaluation         ...       34.701 sec (=   0.578 min)  16.8 %
Geometry relaxation             ...        0.356 sec (=   0.006 min)   0.2 %
Analytical frequency calculation...       38.692 sec (=   0.645 min)  18.8 %
                             ****ORCA TERMINATED NORMALLY****
TOTAL RUN TIME: 0 days 0 hours 3 minutes 27 seconds 923 msec
