
                                 *****************
                                 * O   R   C   A *
                                 *****************

           --- An Ab Initio, DFT and Semiempirical electronic structure package ---

                  #######################################################
                  #                        -***-                        #
                  #          Department of theory and spectroscopy      #
                  #               Directorship: Frank Neese             #
                  #        Max Planck Institute fuer Kohlenforschung    #
                  #                Kaiser Wilhelm Platz 1               #
                  #                 D-45470 Muelheim/Ruhr               #
                  #                      Germany                        #
                  #                                                     #
                  #                  All rights reserved                #
                  #                        -***-                        #
                  #######################################################


                         Program Version 4.2.1 -  RELEASE  -


 With contributions from (in alphabetic order):
   Daniel Aravena         : Magnetic Suceptibility
   Michael Atanasov       : Ab Initio Ligand Field Theory (pilot matlab implementation)
   Alexander A. Auer      : GIAO ZORA, VPT2
   Ute Becker             : Parallelization
   Giovanni Bistoni       : ED, misc. LED, open-shell LED, HFLD
   Martin Brehm           : Molecular dynamics
   Dmytro Bykov           : SCF Hessian
   Vijay G. Chilkuri      : MRCI spin determinant printing, contributions to CSF-ICE
   Dipayan Datta          : RHF DLPNO-CCSD density
   Achintya Kumar Dutta   : EOM-CC, STEOM-CC
   Dmitry Ganyushin       : Spin-Orbit,Spin-Spin,Magnetic field MRCI
   Miquel Garcia          : C-PCM Hessian, Gaussian charge scheme
   Yang Guo               : DLPNO-NEVPT2, CIM, IAO-localization
   Andreas Hansen         : Spin unrestricted coupled pair/coupled cluster methods
   Benjamin Helmich-Paris : CASSCF linear response (MC-RPA)
   Lee Huntington         : MR-EOM, pCC
   Robert Izsak           : Overlap fitted RIJCOSX, COSX-SCS-MP3, EOM
   Christian Kollmar      : KDIIS, OOCD, Brueckner-CCSD(T), CCSD density
   Simone Kossmann        : Meta GGA functionals, TD-DFT gradient, OOMP2, MP2 Hessian
   Martin Krupicka        : AUTO-CI
   Lucas Lang             : DCDCAS
   Dagmar Lenk            : GEPOL surface, SMD
   Dimitrios Liakos       : Extrapolation schemes; Compound Job, initial MDCI parallelization
   Dimitrios Manganas     : Further ROCIS development; embedding schemes
   Dimitrios Pantazis     : SARC Basis sets
   Taras Petrenko         : DFT Hessian,TD-DFT gradient, ASA, ECA, R-Raman, ABS, FL, XAS/XES, NRVS
   Peter Pinski           : DLPNO-MP2, DLPNO-MP2 Gradient
   Christoph Reimann      : Effective Core Potentials
   Marius Retegan         : Local ZFS, SOC
   Christoph Riplinger    : Optimizer, TS searches, QM/MM, DLPNO-CCSD(T), (RO)-DLPNO pert. Triples
   Tobias Risthaus        : Range-separated hybrids, TD-DFT gradient, RPA, STAB
   Michael Roemelt        : Original ROCIS implementation
   Masaaki Saitow         : Open-shell DLPNO-CCSD energy and density
   Barbara Sandhoefer     : DKH picture change effects
   Avijit Sen             : IP-ROCIS
   Kantharuban Sivalingam : CASSCF convergence, NEVPT2, FIC-MRCI
   Bernardo de Souza      : ESD, SOC TD-DFT
   Georgi Stoychev        : AutoAux, RI-MP2 NMR
   Willem Van den Heuvel  : Paramagnetic NMR
   Boris Wezisla          : Elementary symmetry handling
   Frank Wennmohs         : Technical directorship


 We gratefully acknowledge several colleagues who have allowed us to
 interface, adapt or use parts of their codes:
   Stefan Grimme, W. Hujo, H. Kruse,             : VdW corrections, initial TS optimization,
                  C. Bannwarth                     DFT functionals, gCP, sTDA/sTD-DF
   Ed Valeev, F. Pavosevic, A. Kumar             : LibInt (2-el integral package), F12 methods
   Garnet Chan, S. Sharma, J. Yang, R. Olivares  : DMRG
   Ulf Ekstrom                                   : XCFun DFT Library
   Mihaly Kallay                                 : mrcc  (arbitrary order and MRCC methods)
   Andreas Klamt, Michael Diedenhofen            : otool_cosmo (COSMO solvation model)
   Jiri Pittner, Ondrej Demel                    : Mk-CCSD
   Frank Weinhold                                : gennbo (NPA and NBO analysis)
   Christopher J. Cramer and Donald G. Truhlar   : smd solvation model
   Lars Goerigk                                  : TD-DFT with DH, B97 family of functionals
   V. Asgeirsson, H. Jonsson                     : NEB implementation
   FAccTs GmbH                                   : IRC, NEB, NEB-TS, Multilevel, MM, QM/MM, CI optimization
   S Lehtola, MJT Oliveira, MAL Marques          : LibXC Library


 Your calculation uses the libint2 library for the computation of 2-el integrals
 For citations please refer to: http://libint.valeyev.net

 Your ORCA version has been built with support for libXC version: 4.2.3
 For citations please refer to: https://tddft.org/programs/libxc/

 This ORCA versions uses:
   CBLAS   interface :  Fast vector & matrix operations
   LAPACKE interface :  Fast linear algebra routines
   SCALAPACK package :  Parallel linear algebra routines


Your calculation utilizes the geometrical counterpoise correction gCP
Please cite in your paper:
H.Kruse, S. Grimme J.Chem.Phys., 136, (2012), 154101 
   

Your calculation utilizes the atom-pairwise dispersion correction
based on tight binding partial charges (D4)
Cite in your paper:
E.Caldeweyher, C.Bannwarth, S.Grimme, J.Chem.Phys., (2017), 147, 034112.
E.Caldeweyher, S.Ehlert, A.Hansen, H.Neugebauer, S.Grimme, J.Chem.Phys., (2018), in progress.
   

----- Orbital basis set information -----
Your calculation utilizes the basis: def2-SVP
   F. Weigend and R. Ahlrichs, Phys. Chem. Chem. Phys. 7, 3297 (2005).

----- AuxJ basis set information -----
Your calculation utilizes the auxiliary basis: def2/J
   F. Weigend, Phys. Chem. Chem. Phys. 8, 1057 (2006).

================================================================================
                                        WARNINGS
                       Please study these warnings very carefully!
================================================================================


WARNING: Geometry Optimization
  ===> : Switching off AutoStart
         For restart on a previous wavefunction, please use MOREAD

INFO   : the flag for use of LIBINT has been found!

================================================================================
                                       INPUT FILE
================================================================================
NAME = SCO.inp
|  1> ! revPBE D4 gCP(DFT/SVP) def2-SVP Opt Freq TightOpt TightSCF Grid4 FinalGrid5 LargePrint
|  2> 
|  3> %pal
|  4>  nprocs 4
|  5> end
|  6> 
|  7> *xyz 0 1
|  8>   C     -0.500591   -0.334984   -2.083092
|  9>   S      0.768962    0.437992   -1.552446
| 10>   O     -1.446226   -0.910740   -2.478246
| 11> *
| 12> 
| 13>                          ****END OF INPUT****
================================================================================

                       *****************************
                       * Geometry Optimization Run *
                       *****************************

Geometry optimization settings:
Update method            Update   .... BFGS
Choice of coordinates    CoordSys .... Z-matrix Internals
Initial Hessian          InHess   .... Almoef's Model

Convergence Tolerances:
Energy Change            TolE     ....  1.0000e-06 Eh
Max. Gradient            TolMAXG  ....  1.0000e-04 Eh/bohr
RMS Gradient             TolRMSG  ....  3.0000e-05 Eh/bohr
Max. Displacement        TolMAXD  ....  1.0000e-03 bohr
RMS Displacement         TolRMSD  ....  6.0000e-04 bohr
Strict Convergence                ....  False
------------------------------------------------------------------------------
                        ORCA OPTIMIZATION COORDINATE SETUP
------------------------------------------------------------------------------

The optimization will be done in new redundant internal coordinates
Making redundant internal coordinates   ...  (new redundants) done
Evaluating the initial hessian          ...  (Almloef) done
Evaluating the coordinates              ...  done
Calculating the B-matrix                .... done
Calculating the G-matrix                .... done
Diagonalizing the G-matrix              .... done
The first mode is                       ....    0
The number of degrees of freedom        ....    4

    -----------------------------------------------------------------
                    Redundant Internal Coordinates


    -----------------------------------------------------------------
         Definition                    Initial Value    Approx d2E/dq
    -----------------------------------------------------------------
      1. B(S   1,C   0)                  1.5782         0.843687   
      2. B(O   2,C   0)                  1.1755         1.230414   
      3. L(S   1,C   0,O   2, 2)       179.9948         0.547599   
      4. L(S   1,C   0,O   2, 1)       180.0000         0.547599   
    -----------------------------------------------------------------

Number of atoms                         .... 3
Number of degrees of freedom            .... 4

         *************************************************************
         *                GEOMETRY OPTIMIZATION CYCLE   1            *
         *************************************************************
---------------------------------
CARTESIAN COORDINATES (ANGSTROEM)
---------------------------------
  C     -0.500591   -0.334984   -2.083092
  S      0.768962    0.437992   -1.552446
  O     -1.446226   -0.910740   -2.478246

----------------------------
CARTESIAN COORDINATES (A.U.)
----------------------------
  NO LB      ZA    FRAG     MASS         X           Y           Z
   0 C     6.0000    0    12.011   -0.945980   -0.633028   -3.936473
   1 S    16.0000    0    32.060    1.453128    0.827685   -2.933698
   2 O     8.0000    0    15.999   -2.732971   -1.721049   -4.683206

--------------------------------
INTERNAL COORDINATES (ANGSTROEM)
--------------------------------
 C      0   0   0     0.000000000000     0.00000000     0.00000000
 S      1   0   0     1.578240125488     0.00000000     0.00000000
 O      1   2   0     1.175528480504   179.99535713     0.00000000

---------------------------
INTERNAL COORDINATES (A.U.)
---------------------------
 C      0   0   0     0.000000000000     0.00000000     0.00000000
 S      1   0   0     2.982441610738     0.00000000     0.00000000
 O      1   2   0     2.221426890778   179.99535713     0.00000000

---------------------
BASIS SET INFORMATION
---------------------
There are 3 groups of distinct atoms

 Group   1 Type C   : 7s4p1d contracted to 3s2p1d pattern {511/31/1}
 Group   2 Type S   : 10s7p1d contracted to 4s3p1d pattern {5311/511/1}
 Group   3 Type O   : 7s4p1d contracted to 3s2p1d pattern {511/31/1}

Atom   0C    basis set group =>   1
Atom   1S    basis set group =>   2
Atom   2O    basis set group =>   3

-------------------------
BASIS SET IN INPUT FORMAT
-------------------------

 # Basis set for element : C 
 NewGTO C 
 S 5 
   1    1238.4016938000      0.0055173650
   2     186.2900499200      0.0410888285
   3      42.2511763460      0.1822538213
   4      11.6765579320      0.4682845944
   5       3.5930506482      0.4457581734
 S 1 
   1       0.4024514736      1.0000000000
 S 1 
   1       0.1309018267      1.0000000000
 P 3 
   1       9.4680970621      0.0568883320
   2       2.0103545142      0.3129405934
   3       0.5477100471      0.7606501651
 P 1 
   1       0.1526861379      1.0000000000
 D 1 
   1       0.8000000000      1.0000000000
  end;

 # Basis set for element : O 
 NewGTO O 
 S 5 
   1    2266.1767785000     -0.0053893504
   2     340.8701019100     -0.0402347214
   3      77.3631351670     -0.1800818421
   4      21.4796449400     -0.4682885766
   5       6.6589433124     -0.4469261716
 S 1 
   1       0.8097597567      1.0000000000
 S 1 
   1       0.2553077223      1.0000000000
 P 3 
   1      17.7215043170      0.0626302488
   2       3.8635505440      0.3333113849
   3       1.0480920883      0.7414863830
 P 1 
   1       0.2764154441      1.0000000000
 D 1 
   1       1.2000000000      1.0000000000
  end;

 # Basis set for element : S 
 NewGTO S 
 S 5 
   1    9184.9303010000     -0.0054729467
   2    1381.5105503000     -0.0409544021
   3     313.8714758000     -0.1847582895
   4      88.0538706230     -0.4756728065
   5      27.0399149050     -0.4349515358
 S 3 
   1      45.6487313030     -0.0919040458
   2       4.9664522326      0.5569877722
   3       2.0116242047      0.5111546830
 S 1 
   1       0.3566107701      1.0000000000
 S 1 
   1       0.1350722148      1.0000000000
 P 5 
   1     261.9823343900     -0.0091830547
   2      61.3068947360     -0.0659022265
   3      19.1037298870     -0.2458778452
   4       6.6567720378     -0.4823147108
   5       2.3959635161     -0.3895631435
 P 1 
   1       0.6177616168      1.0000000000
 P 1 
   1       0.1699337687      1.0000000000
 D 1 
   1       0.5500000000      1.0000000000
  end;

---------------------------------
AUXILIARY/J BASIS SET INFORMATION
---------------------------------
There are 3 groups of distinct atoms

 Group   1 Type C   : 12s5p4d2f1g contracted to 6s4p3d1f1g pattern {711111/2111/211/2/1}
 Group   2 Type S   : 14s5p5d2f1g contracted to 8s4p3d1f1g pattern {71111111/2111/311/2/1}
 Group   3 Type O   : 12s5p4d2f1g contracted to 6s4p3d1f1g pattern {711111/2111/211/2/1}

Atom   0C    basis set group =>   1
Atom   1S    basis set group =>   2
Atom   2O    basis set group =>   3

-------------------------------------
AUXILIARY/J BASIS SET IN INPUT FORMAT
-------------------------------------

 # Auxiliary/J basis set for element : C 
 NewAuxJGTO C 
 S 7 
   1    1861.0916331000      0.0134602335
   2     642.9939764000      0.0299160374
   3     235.1105725000      0.1008649584
   4      90.7028894000      0.2370970548
   5      36.7794552000      0.3924037254
   6      15.6046273000      0.3195862154
   7       6.8907294000      0.0530104441
 S 1 
   1       3.1478850000     -1.0000000000
 S 1 
   1       1.4777287000      1.0000000000
 S 1 
   1       0.7076466000      1.0000000000
 S 1 
   1       0.3430122000      1.0000000000
 S 1 
   1       0.1669453000      1.0000000000
 P 2 
   1      13.5472892000     -0.6769313712
   2       5.4669419000     -0.3779500978
 P 1 
   1       2.1751721000      1.0000000000
 P 1 
   1       0.8582194000      1.0000000000
 P 1 
   1       0.3376720000      1.0000000000
 D 2 
   1       5.9287253000     -0.3533329857
   2       1.9809209000     -0.7456525731
 D 1 
   1       0.8055417000     -1.0000000000
 D 1 
   1       0.3531244000     -1.0000000000
 F 2 
   1       1.6755626000      0.6311076882
   2       0.5997536000      0.4968166032
 G 1 
   1       1.0024600000     -1.0000000000
  end;

 # Auxiliary/J basis set for element : O 
 NewAuxJGTO O 
 S 7 
   1    2876.8216605000      0.0168151159
   2    1004.7443032000      0.0340137548
   3     369.7579954000      0.1194951309
   4     142.9442404000      0.2664627624
   5      57.8366425000      0.4202764046
   6      24.3864983000      0.2765077335
   7      10.6622662000      0.0057008815
 S 1 
   1       4.8070437000     -1.0000000000
 S 1 
   1       2.2210770000      1.0000000000
 S 1 
   1       1.0447795000      1.0000000000
 S 1 
   1       0.4968425000      1.0000000000
 S 1 
   1       0.2371384000      1.0000000000
 P 2 
   1      64.2613382000     -0.2731534179
   2      16.3006076000     -0.8168011598
 P 1 
   1       4.3550542000      1.0000000000
 P 1 
   1       1.2019554000      1.0000000000
 P 1 
   1       0.3354196000      1.0000000000
 D 2 
   1       9.2146611000     -0.4661230638
   2       2.8435251000     -0.6600908911
 D 1 
   1       0.9955759000     -1.0000000000
 D 1 
   1       0.3649441000     -1.0000000000
 F 2 
   1       2.6420115000      0.5931563945
   2       0.7345613000      0.5931563945
 G 1 
   1       1.3931000000     -1.0000000000
  end;

 # Auxiliary/J basis set for element : S 
 NewAuxJGTO S 
 S 7 
   1    7399.0303145000      0.0295137551
   2    2710.1675859000      0.0559686311
   3    1034.3279062000      0.1764696370
   4     410.4645411000      0.3577969368
   5     168.9762502000      0.4299293578
   6      71.9687889000      0.1259148089
   7      31.6172683000     -0.0646025788
 S 1 
   1      14.2796836000      1.0000000000
 S 1 
   1       6.6060948000      1.0000000000
 S 1 
   1       3.1181477000      1.0000000000
 S 1 
   1       1.4954039000     -1.0000000000
 S 1 
   1       0.7254779000      1.0000000000
 S 1 
   1       0.3544216000      1.0000000000
 S 1 
   1       0.1735525000      1.0000000000
 P 2 
   1      12.6998799000      1.4059102813
   2       4.4295784000     -1.2124994202
 P 1 
   1       1.5232889000      1.0000000000
 P 1 
   1       0.5194667000     -1.0000000000
 P 1 
   1       0.1766547000     -1.0000000000
 D 3 
   1      16.8546461000      1.0295742104
   2       5.0810461000     -0.7461553923
   3       1.5102323000      0.8357028005
 D 1 
   1       0.4451331000      1.0000000000
 D 1 
   1       0.1308362000      1.0000000000
 F 2 
   1       1.0809860000      0.5572698934
   2       0.4161474000      0.5572698934
 G 1 
   1       0.6707100000     -1.0000000000
  end;



           ************************************************************
           *        Program running with 4 parallel MPI-processes     *
           *              working on a common directory               *
           ************************************************************
------------------------------------------------------------------------------
                           ORCA GTO INTEGRAL CALCULATION
                           -- RI-GTO INTEGRALS CHOSEN --
------------------------------------------------------------------------------

                         BASIS SET STATISTICS AND STARTUP INFO

Gaussian basis set:
 # of primitive gaussian shells          ...   42
 # of primitive gaussian functions       ...   84
 # of contracted shells                  ...   20
 # of contracted basis functions         ...   46
 Highest angular momentum                ...    2
 Maximum contraction depth               ...    5
Auxiliary gaussian basis set:
 # of primitive gaussian shells          ...   75
 # of primitive gaussian functions       ...  217
 # of contracted shells                  ...   47
 # of contracted aux-basis functions     ...  149
 Highest angular momentum                ...    4
 Maximum contraction depth               ...    7
Ratio of auxiliary to basis functions    ...  3.24
Integral package used                  ... LIBINT
 One Electron integrals                  ... done
 Ordering auxiliary basis shells         ... done
 Integral threshhold             Thresh  ...  2.500e-11
 Primitive cut-off               TCut    ...  2.500e-12
 Pre-screening matrix                    ... done
 Shell pair data                         ... 
 Ordering of the shell pairs             ... done (   0.000 sec) 205 of 210 pairs
 Determination of significant pairs      ... done (   0.000 sec)
 Creation of shell pair data             ... done (   0.000 sec)
 Storage of shell pair data              ... done (   0.009 sec)
 Shell pair data done in (   0.009 sec)
 Computing two index integrals           ... done
 Cholesky decomposition of the V-matrix  ... done


Timings:
 Total evaluation time                   ...   0.214 sec (  0.004 min)
 One electron matrix time                ...   0.025 sec (  0.000 min) = 11.5%
 Schwartz matrix evaluation time         ...   0.112 sec (  0.002 min) = 52.4%
 Two index repulsion integral time       ...   0.007 sec (  0.000 min) =  3.5%
 Cholesky decomposition of V             ...   0.019 sec (  0.000 min) =  9.0%
 Three index repulsion integral time     ...   0.000 sec (  0.000 min) =  0.0%



           ************************************************************
           *        Program running with 4 parallel MPI-processes     *
           *              working on a common directory               *
           ************************************************************
-------------------------------------------------------------------------------
                                 ORCA SCF
-------------------------------------------------------------------------------

------------
SCF SETTINGS
------------
Hamiltonian:
 Density Functional     Method          .... DFT(GTOs)
 Exchange Functional    Exchange        .... PBE
   PBE kappa parameter   XKappa         ....  1.245000
   PBE mue parameter    XMuePBE         ....  0.219520
 Correlation Functional Correlation     .... PBE
   PBE beta parameter  CBetaPBE         ....  0.066725
 LDA part of GGA corr.  LDAOpt          .... PW91-LDA
 Gradients option       PostSCFGGA      .... off
   Density functional embedding theory  .... OFF
   NL short-range parameter             ....  3.700000
 RI-approximation to the Coulomb term is turned on
   Number of auxiliary basis functions  .... 149


General Settings:
 Integral files         IntName         .... SCO
 Hartree-Fock type      HFTyp           .... RHF
 Total Charge           Charge          ....    0
 Multiplicity           Mult            ....    1
 Number of Electrons    NEL             ....   30
 Basis Dimension        Dim             ....   46
 Nuclear Repulsion      ENuc            ....     78.3932113107 Eh

Convergence Acceleration:
 DIIS                   CNVDIIS         .... on
   Start iteration      DIISMaxIt       ....    12
   Startup error        DIISStart       ....  0.200000
   # of expansion vecs  DIISMaxEq       ....     5
   Bias factor          DIISBfac        ....   1.050
   Max. coefficient     DIISMaxC        ....  10.000
 Newton-Raphson         CNVNR           .... off
 SOSCF                  CNVSOSCF        .... on
   Start iteration      SOSCFMaxIt      ....   150
   Startup grad/error   SOSCFStart      ....  0.003300
 Level Shifting         CNVShift        .... on
   Level shift para.    LevelShift      ....    0.2500
   Turn off err/grad.   ShiftErr        ....    0.0010
 Zerner damping         CNVZerner       .... off
 Static damping         CNVDamp         .... on
   Fraction old density DampFac         ....    0.7000
   Max. Damping (<1)    DampMax         ....    0.9800
   Min. Damping (>=0)   DampMin         ....    0.0000
   Turn off err/grad.   DampErr         ....    0.1000
 Fernandez-Rico         CNVRico         .... off

SCF Procedure:
 Maximum # iterations   MaxIter         ....   125
 SCF integral mode      SCFMode         .... Direct
   Integral package                     .... LIBINT
 Reset frequency        DirectResetFreq ....    20
 Integral Threshold     Thresh          ....  2.500e-11 Eh
 Primitive CutOff       TCut            ....  2.500e-12 Eh

Convergence Tolerance:
 Convergence Check Mode ConvCheckMode   .... Total+1el-Energy
 Convergence forced     ConvForced      .... 0
 Energy Change          TolE            ....  1.000e-08 Eh
 1-El. energy change                    ....  1.000e-05 Eh
 Orbital Gradient       TolG            ....  1.000e-05
 Orbital Rotation angle TolX            ....  1.000e-05
 DIIS Error             TolErr          ....  5.000e-07


Diagonalization of the overlap matrix:
Smallest eigenvalue                        ... 4.685e-03
Time for diagonalization                   ...    0.003 sec
Threshold for overlap eigenvalues          ... 1.000e-08
Number of eigenvalues below threshold      ... 0
Time for construction of square roots      ...    0.001 sec
Total time needed                          ...    0.004 sec

-------------------
DFT GRID GENERATION
-------------------

General Integration Accuracy     IntAcc      ...  4.670
Radial Grid Type                 RadialGrid  ... Gauss-Chebyshev
Angular Grid (max. acc.)         AngularGrid ... Lebedev-302
Angular grid pruning method      GridPruning ... 3 (G Style)
Weight generation scheme         WeightScheme... Becke
Basis function cutoff            BFCut       ...    1.0000e-11
Integration weight cutoff        WCut        ...    1.0000e-14
Grids for H and He will be reduced by one unit

# of grid points (after initial pruning)     ...  19270 (   0.0 sec)
# of grid points (after weights+screening)   ...  19146 (   0.0 sec)
nearest neighbour list constructed           ...    0.0 sec
Grid point re-assignment to atoms done       ...    0.0 sec
Grid point division into batches done        ...    0.1 sec
Reduced shell lists constructed in    0.2 sec

Total number of grid points                  ...    19146
Total number of batches                      ...      301
Average number of points per batch           ...       63
Average number of grid points per atom       ...     6382
Average number of shells per batch           ...    16.71 (83.57%)
Average number of basis functions per batch  ...    40.38 (87.78%)
Average number of large shells per batch     ...    15.26 (91.30%)
Average number of large basis fcns per batch ...    37.52 (92.92%)
Maximum spatial batch extension              ...   9.85, 19.40, 20.40 au
Average spatial batch extension              ...   0.58,  0.77,  0.78 au

Time for grid setup =    0.196 sec

------------------------------
INITIAL GUESS: MODEL POTENTIAL
------------------------------
Loading Hartree-Fock densities                     ... done
Calculating cut-offs                               ... done
Setting up the integral package                    ... done
Initializing the effective Hamiltonian             ... done
Starting the Coulomb interaction                   ... done (   0.0 sec)
Reading the grid                                   ... done
Mapping shells                                     ... done
Starting the XC term evaluation                    ... done (   0.0 sec)
  promolecular density results
     # of electrons  =     29.999998637
     EX              =    -38.298686044
     EC              =     -1.076512867
     EX+EC           =    -39.375198911
Transforming the Hamiltonian                       ... done (   0.0 sec)
Diagonalizing the Hamiltonian                      ... done (   0.0 sec)
Back transforming the eigenvectors                 ... done (   0.0 sec)
Now organizing SCF variables                       ... done
                      ------------------
                      INITIAL GUESS DONE (   0.3 sec)
                      ------------------
----------------------
INITIAL GUESS ORBITALS
----------------------
                      0         1         2         3         4         5   
                 -88.08985 -18.96582 -10.06845  -7.74378  -5.76256  -5.75809
                   2.00000   2.00000   2.00000   2.00000   2.00000   2.00000
                  --------  --------  --------  --------  --------  --------
  0C   1s        -0.000184 -0.000260  0.988101 -0.000247  0.000109 -0.000000
  0C   2s         0.000530 -0.004067  0.049535  0.001445 -0.001946  0.000000
  0C   3s        -0.001203 -0.000419 -0.016771 -0.004331  0.005098 -0.000001
  0C   1pz        0.000182 -0.000363 -0.000910  0.000683 -0.000652  0.000267
  0C   1px        0.000435 -0.000869 -0.002178  0.001633 -0.001561  0.000007
  0C   1py        0.000265 -0.000529 -0.001326  0.000994 -0.000950 -0.000194
  0C   2pz        0.000530  0.009282 -0.007520  0.001830  0.000044 -0.001549
  0C   2px        0.001267  0.022209 -0.017994  0.004380  0.000105 -0.000037
  0C   2py        0.000772  0.013522 -0.010955  0.002667  0.000064  0.001125
  0C   1dz2      -0.000342 -0.000982 -0.001711 -0.000571  0.000755  0.000334
  0C   1dxz       0.000485  0.001392  0.002425  0.000809 -0.001070  0.000466
  0C   1dyz       0.000295  0.000848  0.001477  0.000493 -0.000651  0.000141
  0C   1dx2y2     0.000365  0.001048  0.001826  0.000609 -0.000805  0.000215
  0C   1dxy       0.000707  0.002029  0.003533  0.001179 -0.001558 -0.000328
  1S   1s        -0.994270  0.000050  0.000113 -0.306173 -0.001636  0.000000
  1S   2s         0.021666  0.000434  0.000992 -1.019255 -0.006264  0.000001
  1S   3s        -0.009560 -0.001469 -0.002689 -0.053020  0.004076 -0.000001
  1S   4s         0.004321 -0.017068  0.017281  0.017326 -0.004003  0.000000
  1S   1pz        0.000059  0.000062  0.000235 -0.001335  0.329826  0.793817
  1S   1px        0.000141  0.000147  0.000563 -0.003193  0.788726  0.019082
  1S   1py        0.000086  0.000090  0.000343 -0.001944  0.480139 -0.576649
  1S   2pz        0.000235  0.000291  0.001051  0.000903 -0.018283 -0.041785
  1S   2px        0.000561  0.000697  0.002514  0.002160 -0.043722 -0.001004
  1S   2py        0.000342  0.000424  0.001531  0.001315 -0.026616  0.030354
  1S   3pz        0.000010  0.003252 -0.002527  0.000062  0.003403  0.007160
  1S   3px        0.000023  0.007779 -0.006046  0.000148  0.008137  0.000172
  1S   3py        0.000014  0.004737 -0.003681  0.000090  0.004954 -0.005202
  1S   1dz2       0.000161  0.000449  0.000985  0.000552 -0.000791  0.000216
  1S   1dxz      -0.000228 -0.000638 -0.001396 -0.000783  0.001122  0.000301
  1S   1dyz      -0.000139 -0.000388 -0.000850 -0.000477  0.000683  0.000091
  1S   1dx2y2    -0.000171 -0.000480 -0.001051 -0.000589  0.000845  0.000139
  1S   1dxy      -0.000331 -0.000928 -0.002033 -0.001140  0.001634 -0.000212
  2O   1s        -0.000093  0.988403  0.000270 -0.000198  0.000117 -0.000000
  2O   2s        -0.000805 -0.044759  0.001564 -0.001900  0.000951 -0.000000
  2O   3s         0.001970  0.041599 -0.023203  0.006710 -0.001730  0.000001
  2O   1pz       -0.000099 -0.001052 -0.000681 -0.000122  0.000153 -0.000049
  2O   1px       -0.000238 -0.002518 -0.001630 -0.000292  0.000365 -0.000001
  2O   1py       -0.000145 -0.001533 -0.000992 -0.000178  0.000222  0.000035
  2O   2pz        0.000120  0.002798 -0.003565  0.000430 -0.000019  0.000656
  2O   2px        0.000287  0.006697 -0.008532  0.001030 -0.000045  0.000016
  2O   2py        0.000175  0.004078 -0.005195  0.000627 -0.000028 -0.000476
  2O   1dz2       0.000067  0.000233  0.000415  0.000085 -0.000138  0.000103
  2O   1dxz      -0.000095 -0.000331 -0.000588 -0.000120  0.000195  0.000144
  2O   1dyz      -0.000058 -0.000201 -0.000358 -0.000073  0.000119  0.000044
  2O   1dx2y2    -0.000072 -0.000249 -0.000443 -0.000091  0.000147  0.000067
  2O   1dxy      -0.000139 -0.000482 -0.000856 -0.000175  0.000284 -0.000102
                      6         7         8         9        10        11   
                  -5.75809  -1.09890  -0.78398  -0.55652  -0.47112  -0.47112
                   2.00000   2.00000   2.00000   2.00000   2.00000   2.00000
                  --------  --------  --------  --------  --------  --------
  0C   1s         0.000000  0.141118  0.145611  0.131631 -0.000001  0.000000
  0C   2s        -0.000000 -0.280267 -0.310845 -0.301601  0.000003 -0.000001
  0C   3s        -0.000000 -0.004372 -0.042384 -0.070854 -0.000001  0.000001
  0C   1pz        0.000159  0.069799 -0.081371  0.067459 -0.278273  0.171427
  0C   1px       -0.000196  0.167038 -0.194681  0.161429 -0.009825 -0.205917
  0C   1py        0.000213  0.101702 -0.118533  0.098288  0.207120  0.220550
  0C   2pz       -0.000923  0.012082 -0.008261 -0.015614 -0.112642  0.069392
  0C   2px        0.001137  0.028910 -0.019765 -0.037361 -0.003977 -0.083354
  0C   2py       -0.001233  0.017602 -0.012034 -0.022748  0.083840  0.089277
  0C   1dz2       0.000199  0.010651  0.006488  0.003903  0.012508 -0.007706
  0C   1dxz       0.000133 -0.015093 -0.009198 -0.005530  0.017540 -0.005304
  0C   1dyz       0.000321 -0.009190 -0.005600 -0.003367  0.005149 -0.012207
  0C   1dx2y2    -0.000562 -0.011365 -0.006924 -0.004164  0.008443  0.021130
  0C   1dxy       0.000161 -0.021992 -0.013398 -0.008058 -0.012493 -0.005912
  1S   1s         0.000000  0.002334  0.066450 -0.020761 -0.000002  0.000001
  1S   2s         0.000000  0.014117  0.411232 -0.131612 -0.000014  0.000009
  1S   3s        -0.000000 -0.016546 -0.590573  0.199312  0.000020 -0.000013
  1S   4s        -0.000000 -0.033131 -0.198529  0.136011  0.000019 -0.000013
  1S   1pz        0.473201  0.001789  0.030666  0.005860 -0.040066  0.024682
  1S   1px       -0.582691  0.004282  0.073367  0.014022 -0.001406 -0.029657
  1S   1py        0.632128  0.002607  0.044671  0.008537  0.029830  0.031755
  1S   2pz       -0.024908  0.002508  0.050054  0.009157 -0.071061  0.043776
  1S   2px        0.030672  0.006002  0.119753  0.021912 -0.002494 -0.052599
  1S   2py       -0.033274  0.003654  0.072913  0.013341  0.052906  0.056320
  1S   3pz        0.004269  0.007226  0.027178  0.002689 -0.056399  0.034744
  1S   3px       -0.005256  0.017286  0.065022  0.006438 -0.001981 -0.041744
  1S   3py        0.005702  0.010525  0.039589  0.003920  0.041987  0.044699
  1S   1dz2       0.000128  0.001735  0.014525  0.001718  0.014984 -0.009231
  1S   1dxz       0.000086 -0.002460 -0.020592 -0.002435  0.021000 -0.006347
  1S   1dyz       0.000207 -0.001498 -0.012537 -0.001482  0.006161 -0.014618
  1S   1dx2y2    -0.000363 -0.001852 -0.015501 -0.001833  0.010108  0.025304
  1S   1dxy       0.000104 -0.003583 -0.029997 -0.003548 -0.014964 -0.007077
  2O   1s        -0.000000 -0.269307  0.048333  0.147364 -0.000001  0.000000
  2O   2s        -0.000000 -0.554943  0.107363  0.319582 -0.000002  0.000001
  2O   3s         0.000000 -0.220740  0.055726  0.306795 -0.000002  0.000001
  2O   1pz       -0.000029 -0.062728 -0.001624 -0.174338 -0.442748  0.272749
  2O   1px        0.000036 -0.150114 -0.003877 -0.417206 -0.015629 -0.327628
  2O   1py       -0.000039 -0.091398 -0.002360 -0.254018  0.329544  0.350906
  2O   2pz        0.000391 -0.006058 -0.003912 -0.079652 -0.243846  0.150219
  2O   2px       -0.000481 -0.014495 -0.009358 -0.190615 -0.008608 -0.180444
  2O   2py        0.000522 -0.008825 -0.005698 -0.116057  0.181498  0.193265
  2O   1dz2       0.000062  0.005405 -0.000299  0.006673 -0.012216  0.007525
  2O   1dxz       0.000041 -0.007659  0.000422 -0.009456 -0.017127  0.005179
  2O   1dyz       0.000099 -0.004663  0.000257 -0.005758 -0.005027  0.011920
  2O   1dx2y2    -0.000174 -0.005767  0.000318 -0.007120 -0.008245 -0.020634
  2O   1dxy       0.000050 -0.011160  0.000616 -0.013778  0.012199  0.005773
                     12        13        14        15        16        17   
                  -0.45243  -0.30445  -0.30445  -0.09068  -0.09067   0.00417
                   2.00000   2.00000   2.00000   0.00000   0.00000   0.00000
                  --------  --------  --------  --------  --------  --------
  0C   1s         0.105776  0.000002 -0.000001  0.000019 -0.000012 -0.159650
  0C   2s        -0.253339 -0.000002  0.000001 -0.000041  0.000026  0.396484
  0C   3s        -0.131013 -0.000008  0.000005 -0.000136  0.000092  1.539872
  0C   1pz       -0.100195  0.154248 -0.084216  0.463734 -0.300447  0.047025
  0C   1px       -0.239789 -0.000525  0.110849  0.024508  0.347677  0.112309
  0C   1py       -0.145997 -0.105011 -0.124257 -0.358572 -0.364798  0.068380
  0C   2pz       -0.016717  0.091248 -0.049819  0.418604 -0.271204  0.059943
  0C   2px       -0.040020 -0.000325  0.065588  0.022112  0.313859  0.143136
  0C   2py       -0.024366 -0.062134 -0.073506 -0.323688 -0.329290  0.087150
  0C   1dz2       0.001020  0.020644 -0.011271  0.007344 -0.004758  0.020123
  0C   1dxz      -0.001449  0.028477 -0.007005  0.010376 -0.003397 -0.028518
  0C   1dyz      -0.000882  0.009249 -0.019082  0.002901 -0.007341 -0.017364
  0C   1dx2y2    -0.001090  0.011724  0.034482  0.005316  0.012468 -0.021473
  0C   1dxy      -0.002109 -0.019475 -0.010495 -0.007516 -0.003354 -0.041551
  1S   1s        -0.047985  0.000000 -0.000000 -0.000003  0.000002  0.030268
  1S   2s        -0.307333  0.000000 -0.000000 -0.000018  0.000012  0.205621
  1S   3s         0.440834  0.000001  0.000000  0.000037 -0.000024 -0.377880
  1S   4s         0.358015  0.000007 -0.000005  0.000039 -0.000032 -0.663836
  1S   1pz        0.063292  0.196031 -0.107030 -0.110902  0.071851  0.061470
  1S   1px        0.151413 -0.000680  0.140888 -0.005875 -0.083133  0.147104
  1S   1py        0.092189 -0.133469 -0.157917  0.085739  0.087242  0.089565
  1S   2pz        0.110393  0.352783 -0.192613 -0.201311  0.130426  0.112241
  1S   2px        0.264090 -0.001224  0.253545 -0.010666 -0.150903  0.268603
  1S   2py        0.160793 -0.240194 -0.284190  0.155634  0.158363  0.163541
  1S   3pz        0.090844  0.427052 -0.233164 -0.384626  0.249195  0.335165
  1S   3px        0.217324 -0.001485  0.306929 -0.020380 -0.288312  0.802043
  1S   3py        0.132319 -0.290764 -0.344021  0.297355  0.302573  0.488328
  1S   1dz2       0.017483 -0.024817  0.013549 -0.054301  0.035181 -0.041740
  1S   1dxz      -0.024790 -0.034230  0.008418 -0.076666  0.025091  0.059140
  1S   1dyz      -0.015094 -0.011116  0.022937 -0.021427  0.054252  0.036008
  1S   1dx2y2    -0.018660 -0.014091 -0.041449 -0.039277 -0.092163  0.044536
  1S   1dxy      -0.036108  0.023411  0.012614  0.055585  0.024766  0.086178
  2O   1s        -0.006937 -0.000000  0.000000  0.000008 -0.000005 -0.078999
  2O   2s        -0.006916  0.000001 -0.000000  0.000021 -0.000015 -0.201423
  2O   3s        -0.048876 -0.000013  0.000008  0.000020 -0.000007 -0.402079
  2O   1pz        0.061385 -0.240457  0.131286 -0.274617  0.177920 -0.076429
  2O   1px        0.146851  0.000809 -0.172796 -0.014503 -0.205900 -0.182788
  2O   1py        0.089412  0.163694  0.193705  0.212351  0.216027 -0.111291
  2O   2pz        0.027489 -0.174058  0.095033 -0.266347  0.172563 -0.081113
  2O   2px        0.065756  0.000584 -0.125080 -0.014072 -0.199693 -0.193971
  2O   2py        0.040037  0.118490  0.140216  0.205952  0.209523 -0.118101
  2O   1dz2      -0.002132 -0.000449  0.000245  0.007048 -0.004567  0.000353
  2O   1dxz       0.003023 -0.000619  0.000152  0.009954 -0.003259 -0.000496
  2O   1dyz       0.001841 -0.000201  0.000415  0.002783 -0.007043 -0.000302
  2O   1dx2y2     0.002276 -0.000255 -0.000750  0.005100  0.011965 -0.000375
  2O   1dxy       0.004404  0.000424  0.000228 -0.007216 -0.003216 -0.000726
                     18        19        20        21        22        23   
                   0.13357   0.35034   0.41581   0.41581   0.44759   0.54224
                   0.00000   0.00000   0.00000   0.00000   0.00000   0.00000
                  --------  --------  --------  --------  --------  --------
  0C   1s        -0.107086  0.035582  0.000025 -0.000015  0.115108 -0.000594
  0C   2s         0.561504 -0.149371 -0.000098  0.000073 -0.185418  0.004356
  0C   3s        -0.347497  1.121606 -0.000014 -0.000040 -0.710120 -0.006924
  0C   1pz        0.119164 -0.014419  0.745544 -0.469426  0.191356 -0.096383
  0C   1px        0.285140 -0.034481  0.031953  0.554767  0.458165 -0.000300
  0C   1py        0.173612 -0.021000 -0.564090 -0.589005  0.278978  0.065301
  0C   2pz        0.660945 -0.327838 -0.979509  0.616711 -1.035301 -0.085204
  0C   2px        1.581518 -0.784512 -0.042109 -0.728801 -2.477485 -0.006234
  0C   2py        0.962915 -0.477647  0.740991  0.773810 -1.508459  0.052395
  0C   1dz2      -0.010082 -0.009256 -0.007038  0.004431 -0.050479  0.064723
  0C   1dxz       0.014290  0.013128 -0.009888  0.003097  0.071545  0.089302
  0C   1dyz       0.008701  0.007993 -0.002843  0.006933  0.043560  0.028928
  0C   1dx2y2     0.010759  0.009880 -0.004890 -0.011912  0.053868  0.036927
  0C   1dxy       0.020820  0.019118  0.007111  0.003272  0.104234 -0.061148
  1S   1s        -0.013449 -0.065691  0.000001 -0.000000  0.013277  0.000003
  1S   2s        -0.101418 -0.485527  0.000010 -0.000001  0.097224  0.000021
  1S   3s         0.618199  1.995141 -0.000035  0.000000 -0.392444 -0.000567
  1S   4s        -2.080707 -1.689760  0.000226 -0.000042  2.596871  0.008230
  1S   1pz        0.007992  0.022273  0.047527 -0.029927 -0.046686  0.156964
  1S   1px        0.019110  0.053293  0.002023  0.035376 -0.111668 -0.000437
  1S   1py        0.011635  0.032447 -0.035973 -0.037550 -0.067989 -0.107171
  1S   2pz       -0.013275  0.057747  0.135646 -0.085416 -0.159780  0.530113
  1S   2px       -0.031775  0.138166  0.005766  0.100972 -0.382192 -0.001447
  1S   2py       -0.019347  0.084122 -0.102676 -0.107172 -0.232697 -0.361920
  1S   3pz        0.425613 -0.046284  0.157291 -0.099047 -0.260368 -0.443806
  1S   3px        1.018168 -0.110674  0.006675  0.117073 -0.622841 -0.002342
  1S   3py        0.619920 -0.067385 -0.119071 -0.124276 -0.379216  0.299823
  1S   1dz2      -0.079538 -0.013149  0.043509 -0.027399 -0.094257 -0.385458
  1S   1dxz       0.112787  0.018603  0.061204 -0.019158  0.133612 -0.532009
  1S   1dyz       0.068671  0.011325  0.017596 -0.042902  0.081351 -0.172317
  1S   1dx2y2     0.084893  0.014021  0.030279  0.073647  0.100585 -0.219989
  1S   1dxy       0.164273  0.027134 -0.043898 -0.020265  0.194649  0.364117
  2O   1s         0.068123 -0.070402  0.000005 -0.000003  0.008433 -0.000297
  2O   2s         0.074498 -0.184929  0.000026 -0.000010  0.131467 -0.000803
  2O   3s         1.526511 -0.907533 -0.000120  0.000025 -1.659042 -0.003654
  2O   1pz        0.017338  0.014997  0.070163 -0.044177  0.149579  0.164516
  2O   1px        0.041490  0.035844  0.003040  0.052185  0.357908 -0.000467
  2O   1py        0.025261  0.021823 -0.053055 -0.055431  0.217917 -0.112335
  2O   2pz        0.139181 -0.106932  0.084883 -0.053447 -0.096157 -0.049005
  2O   2px        0.333120 -0.255897  0.003630  0.063158 -0.230149 -0.001623
  2O   2py        0.202823 -0.155806 -0.064232 -0.067063 -0.140127  0.031887
  2O   1dz2      -0.004192  0.007967  0.016472 -0.010371  0.028066 -0.007959
  2O   1dxz       0.005940 -0.011292  0.023158 -0.007250 -0.039781 -0.010903
  2O   1dyz       0.003617 -0.006875  0.006658 -0.016235 -0.024221 -0.003521
  2O   1dx2y2     0.004473 -0.008501  0.011455  0.027879 -0.029951 -0.004494
  2O   1dxy       0.008655 -0.016451 -0.016629 -0.007666 -0.057955  0.007553
                     24        25        26        27        28        29   
                   0.54225   0.54633   0.55505   0.55505   0.68703   0.68703
                   0.00000   0.00000   0.00000   0.00000   0.00000   0.00000
                  --------  --------  --------  --------  --------  --------
  0C   1s         0.000328 -0.268997 -0.000001 -0.000002  0.000008 -0.000004
  0C   2s        -0.002409  1.974565  0.000005  0.000015 -0.000098  0.000053
  0C   3s         0.003839 -3.119465 -0.000004 -0.000017 -0.000075  0.000037
  0C   1pz        0.052797 -0.100071  0.000001 -0.000007  0.048436 -0.026498
  0C   1px       -0.068870 -0.240348 -0.000007 -0.000004 -0.000094  0.034791
  0C   1py        0.077610 -0.146331  0.000005 -0.000002 -0.032984 -0.039010
  0C   2pz        0.046694 -1.223549  0.000005 -0.000010 -0.350894  0.191958
  0C   2px       -0.055774 -2.927967 -0.000007 -0.000010  0.001024 -0.252319
  0C   2py        0.068620 -1.782716  0.000005 -0.000009  0.239260  0.282601
  0C   1dz2      -0.035458  0.000810  0.048129  0.001475  0.007705 -0.004215
  0C   1dxz      -0.022091 -0.001633 -0.017888  0.030175  0.010610 -0.002614
  0C   1dyz      -0.059906 -0.000994 -0.008782 -0.050718  0.003436 -0.007119
  0C   1dx2y2     0.108126 -0.001011  0.016591 -0.018229  0.004377  0.012857
  0C   1dxy      -0.032839 -0.001960  0.030681  0.010618 -0.007275 -0.003902
  1S   1s        -0.000001  0.000787  0.000000  0.000000  0.000000 -0.000000
  1S   2s        -0.000011  0.006907  0.000001  0.000001  0.000002 -0.000001
  1S   3s         0.000313 -0.244178 -0.000002 -0.000004 -0.000019  0.000010
  1S   4s        -0.004567  3.718742  0.000005  0.000020  0.000036 -0.000016
  1S   1pz       -0.085983 -0.009286 -0.000007  0.000007 -0.252338  0.138043
  1S   1px        0.112939 -0.020954  0.000008 -0.000005  0.000728 -0.181440
  1S   1py       -0.126393 -0.012760 -0.000010  0.000001  0.172052  0.203227
  1S   2pz       -0.290388 -0.025963 -0.000025  0.000025 -0.878980  0.480849
  1S   2px        0.381401 -0.057860  0.000027 -0.000016  0.002535 -0.632016
  1S   2py       -0.426865 -0.035234 -0.000032  0.000002  0.599315  0.707908
  1S   3pz        0.243120 -0.650137  0.000019 -0.000023  0.904984 -0.495076
  1S   3px       -0.316267 -1.558961 -0.000023  0.000005 -0.002622  0.650723
  1S   3py        0.357371 -0.949179  0.000025 -0.000006 -0.617055 -0.728852
  1S   1dz2       0.211091  0.019961  0.763768  0.023334 -0.216417  0.118389
  1S   1dxz       0.131678 -0.025426 -0.283805  0.478738 -0.298574  0.073693
  1S   1dyz       0.356818 -0.015468 -0.139252 -0.804857 -0.096816  0.200194
  1S   1dx2y2    -0.644054 -0.020431  0.263078 -0.289217 -0.123238 -0.361519
  1S   1dxy       0.195606 -0.039520  0.486915  0.168521  0.204336  0.109883
  2O   1s         0.000164 -0.140349 -0.000000 -0.000001  0.000025 -0.000013
  2O   2s         0.000443 -0.389418 -0.000001 -0.000004  0.000101 -0.000053
  2O   3s         0.002028 -1.653852 -0.000001 -0.000008  0.000029 -0.000018
  2O   1pz       -0.090121 -0.011591 -0.000012  0.000008  0.297636 -0.162822
  2O   1px        0.118379 -0.026607  0.000010 -0.000008 -0.000885  0.214032
  2O   1py       -0.132476 -0.016200 -0.000011  0.000004 -0.202960 -0.239707
  2O   2pz        0.026848 -0.335584  0.000004 -0.000005 -0.220711  0.120740
  2O   2px       -0.033759 -0.803500 -0.000006 -0.000004  0.000759 -0.158800
  2O   2py        0.039461 -0.489217  0.000002 -0.000006  0.150597  0.177754
  2O   1dz2       0.004360 -0.013070  0.001899  0.000057 -0.003214  0.001758
  2O   1dxz       0.002686  0.018581 -0.000705  0.001190 -0.004439  0.001097
  2O   1dyz       0.007326  0.011313 -0.000346 -0.002001 -0.001440  0.002975
  2O   1dx2y2    -0.013268  0.013964  0.000653 -0.000719 -0.001833 -0.005372
  2O   1dxy       0.003991  0.027022  0.001211  0.000420  0.003035  0.001634
                     30        31        32        33        34        35   
                   0.74413   0.83154   0.93399   0.93399   1.15248   1.34009
                   0.00000   0.00000   0.00000   0.00000   0.00000   0.00000
                  --------  --------  --------  --------  --------  --------
  0C   1s        -0.059597 -0.033986  0.000009 -0.000007  0.057380  0.107367
  0C   2s         0.181221 -0.070314 -0.000071  0.000050 -0.296656 -1.413678
  0C   3s        -3.221622 -0.017617  0.000235 -0.000172 -2.767919 -0.416670
  0C   1pz        0.273725  0.020827 -0.066273  0.045792 -0.238833  0.088817
  0C   1px        0.654986  0.049822 -0.005123 -0.050505 -0.571450  0.212578
  0C   1py        0.398794  0.030334  0.053783  0.051615 -0.347931  0.129428
  0C   2pz       -0.966918 -0.133157  0.733133 -0.506518 -0.990799  1.574542
  0C   2px       -2.313567 -0.318711  0.056338  0.559077 -2.370467  3.767672
  0C   2py       -1.408631 -0.194046 -0.595294 -0.570890 -1.443279  2.293976
  0C   1dz2       0.038652  0.028812 -0.063376  0.043787  0.026681  0.106350
  0C   1dxz      -0.054808 -0.040810 -0.090355  0.032572 -0.037745 -0.150731
  0C   1dyz      -0.033371 -0.024848 -0.023583  0.065325 -0.022981 -0.091779
  0C   1dx2y2    -0.041254 -0.030738 -0.050005 -0.108287 -0.028450 -0.113486
  0C   1dxy      -0.079829 -0.059479  0.067016  0.027513 -0.055051 -0.219599
  1S   1s         0.010785 -0.013385 -0.000000  0.000000 -0.003359  0.003191
  1S   2s         0.082349 -0.103906 -0.000003  0.000002 -0.016841  0.026464
  1S   3s        -0.561098  0.479782  0.000013 -0.000008 -0.549338 -0.212935
  1S   4s         3.593750 -0.253454 -0.000246  0.000173  4.034505 -2.570272
  1S   1pz        0.089569 -0.073204  0.065673 -0.045373  0.003914 -0.009975
  1S   1px        0.214218 -0.175179  0.005023  0.050105  0.009365 -0.023849
  1S   1py        0.130427 -0.106658 -0.053349 -0.051137  0.005702 -0.014520
  1S   2pz        0.316921 -0.270254  0.254229 -0.175644  0.068878 -0.022695
  1S   2px        0.757962 -0.646733  0.019450  0.193959  0.164783 -0.054218
  1S   2py        0.461487 -0.393765 -0.206515 -0.197958  0.100329 -0.033010
  1S   3pz       -0.885899  0.236038 -0.467450  0.322957 -0.937198  0.478381
  1S   3px       -2.119171  0.564936 -0.035688 -0.356712 -2.242165  1.144238
  1S   3py       -1.290269  0.343962  0.379791  0.363977 -1.365156  0.696675
  1S   1dz2       0.018279  0.076413  0.146071 -0.100917 -0.398750 -0.014808
  1S   1dxz      -0.025837 -0.108219  0.208256 -0.075079  0.565381  0.020907
  1S   1dyz      -0.015733 -0.065888  0.054358 -0.150563  0.344236  0.012730
  1S   1dx2y2    -0.019486 -0.081517  0.115254  0.249581  0.425582  0.015777
  1S   1dxy      -0.037700 -0.157739 -0.154461 -0.063418  0.823519  0.030529
  2O   1s         0.067857  0.006867 -0.000001 -0.000000 -0.023256 -0.275441
  2O   2s         0.256320  0.012039 -0.000003 -0.000004 -0.012442 -2.122953
  2O   3s        -0.594129 -0.098751  0.000041 -0.000017 -1.156299  6.324167
  2O   1pz       -0.031903 -0.238891  0.632088 -0.436704 -0.136615  0.022760
  2O   1px       -0.076349 -0.571637  0.048432  0.482167 -0.326835  0.054418
  2O   1py       -0.046482 -0.348042 -0.513385 -0.492190 -0.198998  0.033134
  2O   2pz        0.252964  0.339846 -1.066970  0.737162  0.075438  0.569077
  2O   2px        0.605332  0.813219 -0.081774 -0.813877  0.180172  1.362017
  2O   2py        0.368556  0.495128  0.866579  0.830824  0.109703  0.829269
  2O   1dz2       0.018209  0.004801  0.025400 -0.017548 -0.017145  0.027783
  2O   1dxz      -0.025799 -0.006804  0.036223 -0.013064  0.024264 -0.039358
  2O   1dyz      -0.015708 -0.004143  0.009460 -0.026184  0.014773 -0.023965
  2O   1dx2y2    -0.019429 -0.005123  0.020047  0.043411  0.018285 -0.029642
  2O   1dxy      -0.037595 -0.009913 -0.026865 -0.011031  0.035382 -0.057358
                     36        37        38        39        40        41   
                   1.50315   1.50316   1.61352   1.61352   2.43596   2.43596
                   0.00000   0.00000   0.00000   0.00000   0.00000   0.00000
                  --------  --------  --------  --------  --------  --------
  0C   1s        -0.000000 -0.000000  0.000001 -0.000001  0.000001 -0.000000
  0C   2s         0.000007  0.000004 -0.000017  0.000044 -0.000003  0.000001
  0C   3s         0.000002  0.000002  0.000112 -0.000300 -0.000005  0.000002
  0C   1pz       -0.000002 -0.000012  0.030746 -0.083753  0.000001 -0.000001
  0C   1px       -0.000007  0.000005 -0.055584  0.008498  0.000002 -0.000000
  0C   1py        0.000011  0.000000  0.070243  0.043384  0.000000 -0.000000
  0C   2pz       -0.000004  0.000021  0.037530 -0.102226 -0.000000 -0.000006
  0C   2px       -0.000008 -0.000022 -0.067621  0.010019  0.000000  0.000004
  0C   2py       -0.000037 -0.000008  0.085696  0.052673 -0.000008  0.000001
  0C   1dz2       0.131488  0.733767  0.168340 -0.458566  0.035143 -0.192030
  0C   1dxz       0.421567 -0.342220  0.056690 -0.606384  0.110066  0.090004
  0C   1dyz      -0.796627 -0.019617  0.363678 -0.248366 -0.208628  0.004358
  0C   1dx2y2    -0.241619  0.295213 -0.744139 -0.135284 -0.062965 -0.077528
  0C   1dxy       0.232101  0.445879  0.275185  0.367848  0.061191 -0.116526
  1S   1s        -0.000000 -0.000000  0.000001 -0.000002 -0.000000  0.000000
  1S   2s        -0.000000 -0.000000  0.000006 -0.000017 -0.000001  0.000000
  1S   3s         0.000002  0.000001 -0.000003  0.000009  0.000001 -0.000000
  1S   4s         0.000014  0.000007 -0.000187  0.000496  0.000004 -0.000002
  1S   1pz        0.000000  0.000002 -0.008531  0.023239 -0.000000  0.000001
  1S   1px        0.000001 -0.000001  0.015441 -0.002387 -0.000001 -0.000000
  1S   1py       -0.000002 -0.000000 -0.019494 -0.012061  0.000000  0.000000
  1S   2pz        0.000001  0.000006 -0.014409  0.039251 -0.000001  0.000001
  1S   2px        0.000003 -0.000003  0.026090 -0.004047 -0.000002  0.000000
  1S   2py       -0.000007 -0.000000 -0.032927 -0.020383  0.000000  0.000000
  1S   3pz       -0.000005 -0.000013 -0.058172  0.158464 -0.000002  0.000005
  1S   3px       -0.000012  0.000001  0.105401 -0.016452 -0.000005 -0.000001
  1S   3py        0.000007 -0.000002 -0.132947 -0.082380  0.000003  0.000001
  1S   1dz2      -0.015260 -0.085160  0.077845 -0.212052 -0.002937  0.016047
  1S   1dxz      -0.048926  0.039714  0.026197 -0.280299 -0.009197 -0.007531
  1S   1dyz       0.092454  0.002275  0.168120 -0.114800  0.017438 -0.000369
  1S   1dx2y2     0.028038 -0.034260 -0.344079 -0.062497  0.005273  0.006484
  1S   1dxy      -0.026934 -0.051746  0.127197  0.170179 -0.005119  0.009743
  2O   1s         0.000002  0.000001  0.000000 -0.000001  0.000000 -0.000000
  2O   2s         0.000013  0.000007 -0.000011  0.000026  0.000002 -0.000001
  2O   3s        -0.000035 -0.000020  0.000122 -0.000315  0.000001  0.000001
  2O   1pz       -0.000001 -0.000011  0.068557 -0.186750  0.000001 -0.000002
  2O   1px       -0.000004  0.000005 -0.123989  0.019027  0.000003 -0.000000
  2O   1py        0.000011  0.000001  0.156636  0.096799 -0.000000 -0.000000
  2O   2pz       -0.000009 -0.000031  0.008724 -0.023765 -0.000000  0.000004
  2O   2px       -0.000023  0.000007 -0.015768  0.002408 -0.000001 -0.000002
  2O   2py        0.000023 -0.000002  0.019930  0.012308  0.000004 -0.000000
  2O   1dz2       0.022800  0.127236 -0.060808  0.165643 -0.136842  0.747783
  2O   1dxz       0.073099 -0.059299 -0.020520  0.219117 -0.428615 -0.350481
  2O   1dyz      -0.138117 -0.003379 -0.131367  0.089772  0.812416 -0.016968
  2O   1dx2y2    -0.041849  0.051166  0.268896  0.048881  0.245189  0.301905
  2O   1dxy       0.040216  0.077291 -0.099436 -0.132930 -0.238297  0.453770
                     42        43        44        45   
                   2.57376   2.96471   2.96471   3.43065
                   0.00000   0.00000   0.00000   0.00000
                  --------  --------  --------  --------
  0C   1s         0.056478  0.000001  0.000002 -0.187154
  0C   2s         0.358417  0.000023  0.000036  1.483641
  0C   3s        -1.078999 -0.000021 -0.000032  0.919968
  0C   1pz       -0.078146  0.110610  0.166085 -0.311841
  0C   1px       -0.186920 -0.125463  0.010409 -0.746273
  0C   1py       -0.113807  0.130091 -0.131174 -0.454373
  0C   2pz       -0.739966  0.067671  0.101609 -0.138176
  0C   2px       -1.770498 -0.076832  0.006293 -0.330710
  0C   2py       -1.077980  0.079584 -0.080324 -0.201355
  0C   1dz2       0.404625 -0.224845 -0.337614 -0.289187
  0C   1dxz      -0.573436 -0.163467 -0.478759  0.409872
  0C   1dyz      -0.349138 -0.341850 -0.130113  0.249552
  0C   1dx2y2    -0.431767  0.574747 -0.253613  0.308597
  0C   1dxy      -0.835493 -0.150920  0.350438  0.597149
  1S   1s        -0.019372 -0.000001 -0.000002  0.006995
  1S   2s        -0.158817 -0.000011 -0.000016  0.058750
  1S   3s         0.348525  0.000032  0.000047 -0.056242
  1S   4s         1.873034  0.000048  0.000074 -0.238467
  1S   1pz       -0.043972  0.012204  0.018325  0.018547
  1S   1px       -0.105192 -0.013851  0.001140  0.044368
  1S   1py       -0.064047  0.014353 -0.014481  0.027014
  1S   2pz       -0.163175  0.036023  0.054090  0.067246
  1S   2px       -0.390370 -0.040896  0.003355  0.160870
  1S   2py       -0.237679  0.042365 -0.042754  0.097947
  1S   3pz       -0.373529 -0.007451 -0.011188  0.065389
  1S   3px       -0.893572  0.008418 -0.000735  0.156472
  1S   3py       -0.544058 -0.008766  0.008803  0.095269
  1S   1dz2      -0.182758 -0.045757 -0.068706  0.080807
  1S   1dxz       0.259176 -0.033219 -0.097349 -0.114570
  1S   1dyz       0.157801 -0.069529 -0.026436 -0.069757
  1S   1dx2y2     0.195070  0.116918 -0.051561 -0.086243
  1S   1dxy       0.377470 -0.030667  0.071323 -0.166884
  2O   1s         0.166438  0.000005  0.000007 -0.028251
  2O   2s         1.186495  0.000038  0.000058  0.143895
  2O   3s        -2.123332 -0.000095 -0.000146 -1.990998
  2O   1pz        0.199329 -0.008683 -0.013038 -0.127307
  2O   1px        0.477062  0.009861 -0.000805 -0.304670
  2O   1py        0.290462 -0.010211  0.010309 -0.185500
  2O   2pz       -0.246723 -0.170971 -0.256720 -0.401146
  2O   2px       -0.590582  0.193833 -0.016188 -0.959978
  2O   2py       -0.359579 -0.201091  0.202664 -0.584489
  2O   1dz2       0.069298 -0.317876 -0.477305  0.415607
  2O   1dxz      -0.098101 -0.231098 -0.676832 -0.588927
  2O   1dyz      -0.059732 -0.483279 -0.183945 -0.358570
  2O   1dx2y2    -0.073913  0.812561 -0.358534 -0.443464
  2O   1dxy      -0.143025 -0.213347  0.495458 -0.858126
--------------
SCF ITERATIONS
--------------
               ***  Starting incremental Fock matrix formation  ***

                         ----------------------------
                         !        ITERATION     0   !
                         ----------------------------
   Total Energy        :    -511.183650439608 Eh
   Energy Change       :    -511.183650439608 Eh
   MAX-DP              :       0.085424209753
   RMS-DP              :       0.004829805195
   Actual Damping      :       0.7000
   Actual Level Shift  :       0.2500 Eh
   Int. Num. El.       :    30.00000355 (UP=   15.00000178 DN=   15.00000178)
   Exchange            :   -38.60931892
   Correlation         :    -1.08726119


                         ----------------------------
                         !        ITERATION     1   !
                         ----------------------------
   Total Energy        :    -511.213377101355 Eh
   Energy Change       :      -0.029726661747 Eh
   MAX-DP              :       0.033184148130
   RMS-DP              :       0.002137248357
   Actual Damping      :       0.7000
   Actual Level Shift  :       0.2500 Eh
   Int. Num. El.       :    30.00000339 (UP=   15.00000170 DN=   15.00000170)
   Exchange            :   -38.47828552
   Correlation         :    -1.08620625

                               ***Turning on DIIS***

                         ----------------------------
                         !        ITERATION     2   !
                         ----------------------------
   Total Energy        :    -511.216903818315 Eh
   Energy Change       :      -0.003526716960 Eh
   MAX-DP              :       0.063180779899
   RMS-DP              :       0.002864243417
   Actual Damping      :       0.0000
   Actual Level Shift  :       0.2500 Eh
   Int. Num. El.       :    30.00000332 (UP=   15.00000166 DN=   15.00000166)
   Exchange            :   -38.42275932
   Correlation         :    -1.08563156
   DIIS-Error          :       0.026093397275


                         ----------------------------
                         !        ITERATION     3   !
                         ----------------------------
   Total Energy        :    -511.236149893312 Eh
   Energy Change       :      -0.019246074997 Eh
   MAX-DP              :       0.029351847950
   RMS-DP              :       0.001380746384
   Actual Damping      :       0.0000
   Actual Level Shift  :       0.2500 Eh
   Int. Num. El.       :    30.00000331 (UP=   15.00000165 DN=   15.00000165)
   Exchange            :   -38.41235889
   Correlation         :    -1.08485402
   DIIS-Error          :       0.017252738305
   DIIS coefficients:
      0.36568   0.63432


                         ----------------------------
                         !        ITERATION     4   !
                         ----------------------------
   Total Energy        :    -511.237027570234 Eh
   Energy Change       :      -0.000877676922 Eh
   MAX-DP              :       0.005409987958
   RMS-DP              :       0.000366112724
   Actual Damping      :       0.0000
   Actual Level Shift  :       0.2500 Eh
   Int. Num. El.       :    30.00000332 (UP=   15.00000166 DN=   15.00000166)
   Exchange            :   -38.42381221
   Correlation         :    -1.08531844
   DIIS-Error          :       0.009794344240
   DIIS coefficients:
      0.24294   0.09978   0.65728

                      *** Initiating the SOSCF procedure ***
                           *** Shutting down DIIS ***
                      *** Re-Reading the Fockian *** 
                      *** Removing any level shift *** 

                         ----------------------------
                         !        ITERATION     5   !
                         ----------------------------
   Total Energy        :    -511.237234166098 Eh
   Energy Change       :      -0.000206595864 Eh
   MAX-DP              :       0.001944565333
   RMS-DP              :       0.000142631578
   Orbital gradient    :       0.000498161306
   Orbital Rotation    :       0.000498161306
   Actual Damping      :       0.0000
   Int. Num. El.       :    30.00000331 (UP=   15.00000166 DN=   15.00000166)
   Exchange            :   -38.41980191
   Correlation         :    -1.08533763

               *** Restarting incremental Fock matrix formation ***

                         ----------------------------
                         !        ITERATION     6   !
                         ----------------------------
   Total Energy        :    -511.237259168411 Eh
   Energy Change       :      -0.000025002313 Eh
   MAX-DP              :       0.003339184411
   RMS-DP              :       0.000286656304
   Orbital gradient    :       0.000863398863
   Orbital Rotation    :       0.004169527189
   Actual Damping      :       0.0000
   Int. Num. El.       :    30.00000331 (UP=   15.00000165 DN=   15.00000165)
   Exchange            :   -38.42067627
   Correlation         :    -1.08537762


                         ----------------------------
                         !        ITERATION     7   !
                         ----------------------------
   Total Energy        :    -511.237203386042 Eh
   Energy Change       :       0.000055782369 Eh
   MAX-DP              :       0.002790359167
   RMS-DP              :       0.000224497183
   Orbital gradient    :       0.003248645953
   Orbital Rotation    :       0.003203342557
   Actual Damping      :       0.0000
   Int. Num. El.       :    30.00000330 (UP=   15.00000165 DN=   15.00000165)
   Exchange            :   -38.41748790
   Correlation         :    -1.08535561


                         ----------------------------
                         !        ITERATION     8   !
                         ----------------------------
   Total Energy        :    -511.237263299191 Eh
   Energy Change       :      -0.000059913149 Eh
   MAX-DP              :       0.000282368507
   RMS-DP              :       0.000014839503
   Orbital gradient    :       0.000051112549
   Orbital Rotation    :       0.000086513187
   Actual Damping      :       0.0000
   Int. Num. El.       :    30.00000331 (UP=   15.00000165 DN=   15.00000165)
   Exchange            :   -38.42045197
   Correlation         :    -1.08537945


                         ----------------------------
                         !        ITERATION     9   !
                         ----------------------------
   Total Energy        :    -511.237263282533 Eh
   Energy Change       :       0.000000016658 Eh
   MAX-DP              :       0.000114153534
   RMS-DP              :       0.000008538797
   Orbital gradient    :       0.000082167289
   Orbital Rotation    :       0.000091228167
   Actual Damping      :       0.0000
   Int. Num. El.       :    30.00000331 (UP=   15.00000165 DN=   15.00000165)
   Exchange            :   -38.42005294
   Correlation         :    -1.08537413


                         ----------------------------
                         !        ITERATION    10   !
                         ----------------------------
   Total Energy        :    -511.237263330175 Eh
   Energy Change       :      -0.000000047642 Eh
   MAX-DP              :       0.000138531535
   RMS-DP              :       0.000008235198
   Orbital gradient    :       0.000036773935
   Orbital Rotation    :       0.000047241322
   Actual Damping      :       0.0000
   Int. Num. El.       :    30.00000331 (UP=   15.00000165 DN=   15.00000165)
   Exchange            :   -38.42019762
   Correlation         :    -1.08537463


                         ----------------------------
                         !        ITERATION    11   !
                         ----------------------------
   Total Energy        :    -511.237263330422 Eh
   Energy Change       :      -0.000000000247 Eh
   MAX-DP              :       0.000098920074
   RMS-DP              :       0.000004699137
   Orbital gradient    :       0.000039534942
   Orbital Rotation    :       0.000025516280
   Actual Damping      :       0.0000
   Int. Num. El.       :    30.00000331 (UP=   15.00000165 DN=   15.00000165)
   Exchange            :   -38.42035110
   Correlation         :    -1.08537873

                  ***Gradient check signals convergence***
              ***Rediagonalizing the Fockian in SOSCF/NRSCF***

               *****************************************************
               *                     SUCCESS                       *
               *           SCF CONVERGED AFTER  12 CYCLES          *
               *****************************************************

Setting up the final grid:

General Integration Accuracy     IntAcc      ...  5.010
Radial Grid Type                 RadialGrid  ... Gauss-Chebyshev
Angular Grid (max. acc.)         AngularGrid ... Lebedev-434
Angular grid pruning method      GridPruning ... 3 (G Style)
Weight generation scheme         WeightScheme... Becke
Basis function cutoff            BFCut       ...    1.0000e-11
Integration weight cutoff        WCut        ...    1.0000e-14
Grids for H and He will be reduced by one unit

# of grid points (after initial pruning)     ...  33280 (   0.0 sec)
# of grid points (after weights+screening)   ...  33041 (   0.0 sec)
nearest neighbour list constructed           ...    0.0 sec
Grid point re-assignment to atoms done       ...    0.0 sec
Grid point division into batches done        ...    0.4 sec
Reduced shell lists constructed in    0.4 sec

Total number of grid points                  ...    33041
Total number of batches                      ...      518
Average number of points per batch           ...       63
Average number of grid points per atom       ...    11014
Average number of shells per batch           ...    16.37 (81.83%)
Average number of basis functions per batch  ...    39.71 (86.33%)
Average number of large shells per batch     ...    14.69 (89.79%)
Average number of large basis fcns per batch ...    36.11 (90.95%)
Maximum spatial batch extension              ...  13.68, 18.21, 21.76 au
Average spatial batch extension              ...   0.48,  0.57,  0.61 au

Final grid set up in    0.5 sec
Final integration                            ... done (   0.0 sec)
Change in XC energy                          ...    -0.000053047
Integrated number of electrons               ...    29.999996939
Previous integrated no of electrons          ...    30.000003307

----------------
TOTAL SCF ENERGY
----------------

Total Energy       :         -511.23731639 Eh          -13911.47462 eV

Components:
Nuclear Repulsion  :           78.39321131 Eh            2133.18773 eV
Electronic Energy  :         -589.63052770 Eh          -16044.66235 eV
One Electron Energy:         -859.12967397 Eh          -23378.10695 eV
Two Electron Energy:          269.49914627 Eh            7333.44460 eV

Virial components:
Potential Energy   :        -1020.64217110 Eh          -27773.08543 eV
Kinetic Energy     :          509.40485471 Eh           13861.61081 eV
Virial Ratio       :            2.00359726


DFT components:
N(Alpha)           :       14.999998469349 electrons
N(Beta)            :       14.999998469349 electrons
N(Total)           :       29.999996938698 electrons
E(X)               :      -38.420296079353 Eh       
E(C)               :       -1.085377809398 Eh       
E(XC)              :      -39.505673888750 Eh       
DFET-embed. en.    :        0.000000000000 Eh       

---------------
SCF CONVERGENCE
---------------

  Last Energy change         ...   -1.2634e-08  Tolerance :   1.0000e-08
  Last MAX-Density change    ...    4.8167e-06  Tolerance :   1.0000e-07
  Last RMS-Density change    ...    2.0748e-07  Tolerance :   5.0000e-09
  Last Orbital Gradient      ...    1.6507e-06  Tolerance :   1.0000e-05
  Last Orbital Rotation      ...    1.6052e-06  Tolerance :   1.0000e-05

             **** THE GBW FILE WAS UPDATED (SCO.gbw) ****
             **** DENSITY FILE WAS UPDATED (SCO.scfp) ****
             **** ENERGY FILE WAS UPDATED (SCO.en.tmp) ****
             **** THE GBW FILE WAS UPDATED (SCO.gbw) ****
             **** DENSITY FILE WAS UPDATED (SCO.scfp) ****
----------------
ORBITAL ENERGIES
----------------

  NO   OCC          E(Eh)            E(eV) 
   0   2.0000     -88.078342     -2396.7335 
   1   2.0000     -18.852541      -513.0037 
   2   2.0000     -10.054161      -273.5876 
   3   2.0000      -7.712437      -209.8661 
   4   2.0000      -5.735502      -156.0710 
   5   2.0000      -5.727327      -155.8485 
   6   2.0000      -5.727326      -155.8485 
   7   2.0000      -1.028644       -27.9908 
   8   2.0000      -0.747166       -20.3314 
   9   2.0000      -0.482076       -13.1180 
  10   2.0000      -0.419967       -11.4279 
  11   2.0000      -0.419966       -11.4279 
  12   2.0000      -0.419435       -11.4134 
  13   2.0000      -0.267901        -7.2900 
  14   2.0000      -0.267899        -7.2899 
  15   0.0000      -0.060791        -1.6542 
  16   0.0000      -0.060789        -1.6542 
  17   0.0000       0.029256         0.7961 
  18   0.0000       0.151996         4.1360 
  19   0.0000       0.366675         9.9777 
  20   0.0000       0.427467        11.6320 
  21   0.0000       0.427469        11.6320 
  22   0.0000       0.482095        13.1185 
  23   0.0000       0.573156        15.5964 
  24   0.0000       0.574663        15.6374 
  25   0.0000       0.574667        15.6375 
  26   0.0000       0.588044        16.0015 
  27   0.0000       0.588045        16.0015 
  28   0.0000       0.712653        19.3923 
  29   0.0000       0.712654        19.3923 
  30   0.0000       0.776583        21.1319 
  31   0.0000       0.877989        23.8913 
  32   0.0000       0.981876        26.7182 
  33   0.0000       0.981879        26.7183 
  34   0.0000       1.185779        32.2667 
  35   0.0000       1.386476        37.7279 
  36   0.0000       1.513022        41.1714 
  37   0.0000       1.513026        41.1715 
  38   0.0000       1.652382        44.9636 
  39   0.0000       1.652383        44.9636 
  40   0.0000       2.507232        68.2252 
  41   0.0000       2.507236        68.2254 
  42   0.0000       2.620818        71.3161 
  43   0.0000       3.033609        82.5487 
  44   0.0000       3.033610        82.5487 
  45   0.0000       3.508085        95.4598 
------------------
MOLECULAR ORBITALS
------------------
                      0         1         2         3         4         5   
                 -88.07834 -18.85254 -10.05416  -7.71244  -5.73550  -5.72733
                   2.00000   2.00000   2.00000   2.00000   2.00000   2.00000
                  --------  --------  --------  --------  --------  --------
  0C   1s         0.000185 -0.000272  0.988223  0.000223 -0.000059  0.000000
  0C   2s        -0.000533 -0.004059  0.048978 -0.001380  0.001738  0.000000
  0C   3s         0.001209 -0.000436 -0.016836  0.004027 -0.005029 -0.000001
  0C   1pz       -0.000182 -0.000375 -0.000860 -0.000660  0.000590  0.000255
  0C   1px       -0.000436 -0.000898 -0.002058 -0.001580  0.001412  0.000008
  0C   1py       -0.000265 -0.000547 -0.001253 -0.000962  0.000860 -0.000187
  0C   2pz       -0.000528  0.009295 -0.007458 -0.001821 -0.000201 -0.001487
  0C   2px       -0.001263  0.022242 -0.017845 -0.004357 -0.000481 -0.000044
  0C   2py       -0.000769  0.013542 -0.010865 -0.002653 -0.000293  0.001093
  0C   1dz2       0.000344 -0.001010 -0.001599  0.000532 -0.000663  0.000317
  0C   1dxz      -0.000488  0.001432  0.002266 -0.000754  0.000939  0.000444
  0C   1dyz      -0.000297  0.000872  0.001380 -0.000459  0.000572  0.000132
  0C   1dx2y2    -0.000367  0.001078  0.001706 -0.000567  0.000707  0.000209
  0C   1dxy      -0.000710  0.002086  0.003301 -0.001098  0.001368 -0.000314
  1S   1s         0.994278  0.000051  0.000110  0.306204  0.002484  0.000000
  1S   2s        -0.021638  0.000440  0.000967  1.019641  0.008954  0.000001
  1S   3s         0.009550 -0.001487 -0.002635  0.051949 -0.002451 -0.000000
  1S   4s        -0.004323 -0.017085  0.017242 -0.016688  0.003680  0.000000
  1S   1pz       -0.000079  0.000063  0.000229  0.002478 -0.329965  0.790661
  1S   1px       -0.000190  0.000151  0.000548  0.005929 -0.789029  0.023267
  1S   1py       -0.000116  0.000092  0.000334  0.003610 -0.480344 -0.581351
  1S   2pz       -0.000243  0.000297  0.001022 -0.000735  0.017888 -0.040896
  1S   2px       -0.000582  0.000712  0.002446 -0.001759  0.042775 -0.001203
  1S   2py       -0.000354  0.000433  0.001489 -0.001071  0.026041  0.030070
  1S   3pz       -0.000005  0.003256 -0.002532 -0.000150 -0.003360  0.006882
  1S   3px       -0.000012  0.007788 -0.006058 -0.000358 -0.008036  0.000202
  1S   3py       -0.000007  0.004742 -0.003688 -0.000218 -0.004892 -0.005060
  1S   1dz2      -0.000161  0.000455  0.000952 -0.000549  0.000643  0.000171
  1S   1dxz       0.000228 -0.000646 -0.001350  0.000779 -0.000912  0.000239
  1S   1dyz       0.000139 -0.000393 -0.000822  0.000474 -0.000555  0.000071
  1S   1dx2y2     0.000172 -0.000486 -0.001016  0.000586 -0.000686  0.000112
  1S   1dxy       0.000332 -0.000941 -0.001967  0.001134 -0.001328 -0.000169
  2O   1s         0.000094  0.988393  0.000274  0.000188 -0.000098 -0.000000
  2O   2s         0.000806 -0.044825  0.001591  0.001817 -0.000795 -0.000000
  2O   3s        -0.001967  0.041658 -0.022795 -0.006542  0.001340  0.000001
  2O   1pz        0.000100 -0.001144 -0.000650  0.000111 -0.000131 -0.000047
  2O   1px        0.000239 -0.002738 -0.001554  0.000266 -0.000312 -0.000001
  2O   1py        0.000145 -0.001667 -0.000946  0.000162 -0.000190  0.000034
  2O   2pz       -0.000119  0.002836 -0.003492 -0.000419  0.000009  0.000628
  2O   2px       -0.000286  0.006789 -0.008357 -0.001003  0.000021  0.000019
  2O   2py       -0.000174  0.004133 -0.005088 -0.000611  0.000013 -0.000462
  2O   1dz2      -0.000068  0.000229  0.000392 -0.000078  0.000119  0.000098
  2O   1dxz       0.000096 -0.000325 -0.000555  0.000110 -0.000168  0.000138
  2O   1dyz       0.000058 -0.000198 -0.000338  0.000067 -0.000102  0.000041
  2O   1dx2y2     0.000072 -0.000245 -0.000418  0.000083 -0.000127  0.000065
  2O   1dxy       0.000140 -0.000473 -0.000809  0.000160 -0.000245 -0.000098
                      6         7         8         9        10        11   
                  -5.72733  -1.02864  -0.74717  -0.48208  -0.41997  -0.41997
                   2.00000   2.00000   2.00000   2.00000   2.00000   2.00000
                  --------  --------  --------  --------  --------  --------
  0C   1s        -0.000000 -0.151338 -0.141441  0.158902  0.000024 -0.000022
  0C   2s        -0.000000  0.302453  0.300703 -0.367999 -0.000058  0.000053
  0C   3s         0.000000  0.014358  0.055778 -0.129335 -0.000041  0.000036
  0C   1pz       -0.000155 -0.070364  0.083871  0.038819 -0.319174  0.202501
  0C   1px        0.000188 -0.168388  0.200670  0.092880 -0.014620 -0.237836
  0C   1py       -0.000203 -0.102524  0.122179  0.056552  0.242778  0.251901
  0C   2pz        0.000901 -0.013083  0.012878 -0.030764 -0.148601  0.094277
  0C   2px       -0.001096 -0.031304  0.030815 -0.073621 -0.006760 -0.110789
  0C   2py        0.001182 -0.019059  0.018762 -0.044825  0.113076  0.117272
  0C   1dz2      -0.000192 -0.010136 -0.004657  0.002017  0.010225 -0.006487
  0C   1dxz      -0.000131  0.014364  0.006603 -0.002859  0.014398 -0.004562
  0C   1dyz      -0.000307  0.008745  0.004020 -0.001741  0.004111 -0.010117
  0C   1dx2y2     0.000535  0.010815  0.004970 -0.002153  0.007189  0.017323
  0C   1dxy      -0.000152  0.020928  0.009618 -0.004166 -0.010360 -0.004737
  1S   1s        -0.000000 -0.003272 -0.066008 -0.032490 -0.000018  0.000016
  1S   2s        -0.000000 -0.019806 -0.408299 -0.206860 -0.000117  0.000100
  1S   3s         0.000000  0.024007  0.577669  0.303643  0.000163 -0.000140
  1S   4s        -0.000000  0.035417  0.200834  0.262030  0.000144 -0.000122
  1S   1pz       -0.479026 -0.002449 -0.028587  0.021939 -0.053256  0.033781
  1S   1px        0.582742 -0.005860 -0.068393  0.052488 -0.002352 -0.039787
  1S   1py       -0.628172 -0.003568 -0.041642  0.031958  0.040591  0.042015
  1S   2pz        0.024777 -0.003464 -0.045727  0.036639 -0.093515  0.059317
  1S   2px       -0.030142 -0.008288 -0.109400  0.087657 -0.004132 -0.069862
  1S   2py        0.032491 -0.005046 -0.066610  0.053370  0.071275  0.073776
  1S   3pz       -0.004169 -0.007748 -0.023982  0.020534 -0.081077  0.051428
  1S   3px        0.005072 -0.018536 -0.057377  0.049130 -0.003580 -0.060574
  1S   3py       -0.005468 -0.011286 -0.034934  0.029913  0.061797  0.063963
  1S   1dz2      -0.000104 -0.002086 -0.013592  0.004967  0.017408 -0.011045
  1S   1dxz      -0.000070  0.002957  0.019271 -0.007042  0.024484 -0.007750
  1S   1dyz      -0.000165  0.001800  0.011733 -0.004287  0.006983 -0.017209
  1S   1dx2y2     0.000288  0.002226  0.014506 -0.005301  0.012222  0.029478
  1S   1dxy      -0.000082  0.004308  0.028071 -0.010258 -0.017642 -0.008045
  2O   1s         0.000000  0.259888 -0.054098  0.145016 -0.000020  0.000017
  2O   2s         0.000000  0.522625 -0.116291  0.310460 -0.000040  0.000034
  2O   3s        -0.000000  0.224978 -0.059566  0.290267 -0.000053  0.000046
  2O   1pz        0.000028  0.062127 -0.002000 -0.142205 -0.378378  0.240038
  2O   1px       -0.000035  0.148675 -0.004793 -0.340318 -0.017099 -0.282232
  2O   1py        0.000037  0.090522 -0.002918 -0.207204  0.288030  0.298577
  2O   2pz       -0.000381  0.007794  0.002870 -0.072784 -0.215650  0.136808
  2O   2px        0.000463  0.018651  0.006865 -0.174186 -0.009752 -0.160847
  2O   2py       -0.000499  0.011356  0.004180 -0.106054  0.164153  0.170172
  2O   1dz2      -0.000060 -0.004808  0.000147  0.006561 -0.012370  0.007848
  2O   1dxz      -0.000041  0.006813 -0.000208 -0.009297 -0.017411  0.005515
  2O   1dyz      -0.000095  0.004148 -0.000127 -0.005661 -0.004969  0.012235
  2O   1dx2y2     0.000166  0.005130 -0.000157 -0.007001 -0.008693 -0.020953
  2O   1dxy      -0.000047  0.009927 -0.000304 -0.013547  0.012534  0.005725
                     12        13        14        15        16        17   
                  -0.41943  -0.26790  -0.26790  -0.06079  -0.06079   0.02926
                   2.00000   2.00000   2.00000   0.00000   0.00000   0.00000
                  --------  --------  --------  --------  --------  --------
  0C   1s        -0.062106  0.000001 -0.000000 -0.000020 -0.000012  0.149068
  0C   2s         0.149616  0.000000 -0.000001  0.000042  0.000025 -0.364805
  0C   3s         0.100094 -0.000011  0.000006  0.000176  0.000110 -1.599644
  0C   1pz        0.116008  0.099204 -0.056700 -0.457203 -0.275850 -0.053164
  0C   1px        0.278205  0.001065  0.072064 -0.012915  0.336572 -0.126972
  0C   1py        0.169348 -0.069837 -0.079444  0.335057 -0.363438 -0.077308
  0C   2pz        0.006201  0.061389 -0.035087 -0.429542 -0.259162 -0.062003
  0C   2px        0.015128  0.000639  0.044613 -0.012112  0.316238 -0.148029
  0C   2py        0.009192 -0.043235 -0.049161  0.314807 -0.341451 -0.090129
  0C   1dz2       0.000213  0.021770 -0.012443 -0.010050 -0.006064 -0.020778
  0C   1dxz      -0.000283  0.030208 -0.008058 -0.014057 -0.004110  0.029445
  0C   1dyz      -0.000172  0.009462 -0.020531 -0.004206 -0.009717  0.017928
[...]
------------------------------------------------------------------------------
Method:  dft/svp 
  
Egcp:       0.0073941354 a.u.
------------------   -----------------
gCP correction             0.007394135
------------------   -----------------

-------------------------   --------------------
FINAL SINGLE POINT ENERGY      -511.235561992734
-------------------------   --------------------

                                *** OPTIMIZATION RUN DONE ***

                            ***************************************
                            *     ORCA property calculations      *
                            ***************************************

                                    ---------------------
                                    Active property flags
                                    ---------------------
   (+) Dipole Moment


------------------------------------------------------------------------------
                       ORCA ELECTRIC PROPERTIES CALCULATION
------------------------------------------------------------------------------

Dipole Moment Calculation                       ... on
Quadrupole Moment Calculation                   ... off
Polarizability Calculation                      ... off
GBWName                                         ... SCO.gbw
Electron density file                           ... SCO.scfp
The origin for moment calculation is the CENTER OF MASS  = (-0.140615, -0.142672 -3.599803)

-------------
DIPOLE MOMENT
-------------
                                X             Y             Z
Electronic contribution:      0.21931       0.13352       0.09164
Nuclear contribution   :     -0.04477      -0.02726      -0.01871
                        -----------------------------------------
Total Dipole Moment    :      0.17453       0.10626       0.07293
                        -----------------------------------------
Magnitude (a.u.)       :      0.21696
Magnitude (Debye)      :      0.55147



--------------------
Rotational spectrum 
--------------------
 
Rotational constants in cm-1: 1479753921.433672     0.197438     0.197438 
Rotational constants in MHz : 44361906534173.945312  5919.052701  5919.052700 

 Dipole components along the rotational axes: 
x,y,z [a.u.] :     0.216961    -0.000012    -0.000001 
x,y,z [Debye]:     0.551470    -0.000032    -0.000003 

 


           ************************************************************
           *        Program running with 4 parallel MPI-processes     *
           *              working on a common directory               *
           ************************************************************

-------------------------------------------------------------------------------
                               ORCA SCF HESSIAN
-------------------------------------------------------------------------------

Hessian of the Kohn-Sham DFT energy:
Kohn-Sham wavefunction type                      ... RKS
Hartree-Fock exchange scaling                    ...    0.000
Number of operators                              ...    1
Number of atoms                                  ...    3
Basis set dimensions                             ...   46
Integral neglect threshold                       ... 2.5e-11
Integral primitive cutoff                        ... 2.5e-12

Setting up DFT Hessian calculations              ... 
Electron density on the grid                     ... found on disk
Electron density on the final grid               ... found on disk
Building xc-kernel on the grid                   ... done   (      0.0 sec)
Building xc-kernel on the final grid             ... done   (      0.0 sec)
                                                     done   (      0.2 sec)

Nuclear repulsion Hessian                        ... done   (      0.0 sec)

----------------------------------------------------------
Detailed info about batch handling over perturbations
----------------------------------------------------------

Number of atoms                                    3
Total number of perturbations                      9
Number of perturbations per process                3
Storage mode                                  InCore

Batching info for step 0
Memory available                   ...       1005.2 MB
Memory needed per perturbation     ...          0.0 MB
Number of perturbations per batch  ...            3
Number of batches                  ...            1

Batching info for step 1
Memory available                   ...       1005.2 MB
Memory needed per perturbation     ...          0.0 MB
Number of perturbations per batch  ...            3
Number of batches                  ...            1

Batching info for step 2
Memory available                   ...       1005.1 MB
Memory needed per perturbation     ...          0.0 MB
Number of perturbations per batch  ...            1
Number of batches                  ...            3

Batching info for step 3
Memory available                   ...       1005.2 MB
Memory needed per perturbation     ...          0.1 MB
Number of perturbations per batch  ...            3
Number of batches                  ...            1

Batching info for step 4
Memory available                   ...       1005.2 MB
Memory needed per perturbation     ...          0.0 MB
Number of perturbations per batch  ...            3
Number of batches                  ...            1

Batching info for step 5
Memory available                   ...       1005.2 MB
Memory needed per perturbation     ...          0.3 MB
Number of perturbations per batch  ...            3
Number of batches                  ...            1

Batching info for step 6
Memory available                   ...       1005.2 MB
Memory needed per perturbation     ...          0.1 MB
Number of perturbations per batch  ...            3
Number of batches                  ...            1


----------------------------------------------
Forming right-hand sides of CP-SCF equations     ...
----------------------------------------------

------------------------
Batching info for step 0
------------------------
Number of perturbation per batch  ...            3
Number of batches                 ...            1
Storage mode                      ...       InCore

One electron integral derivatives                ... done   (      0.1 sec)

------------------------
Batching info for step 1
------------------------
Number of perturbation per batch  ...            3
Number of batches                 ...            1
Storage mode                      ...       InCore

Transforming the overlap derivative matrices     ... done   (      0.0 sec)

------------------------
Batching info for step 1
------------------------
Number of perturbation per batch  ...            3
Number of batches                 ...            1
Storage mode                      ...       InCore

Making the Q(x) pseudodensities                  ... done   (      0.0 sec)
Adding the E*S(x)*S(y) terms to the Hessian      ... done   (      0.0 sec)
Calculating energy weighted overlap derivatives  ... done   (      0.0 sec)

------------------------
Batching info for step 3
------------------------
Number of perturbation per batch  ...            3
Number of batches                 ...            1
Storage mode                      ...       InCore

Two electron integral derivatives (RI)           ... done   (      0.3 sec)

------------------------
Batching info for step 4
------------------------
Number of perturbation per batch  ...            3
Number of batches                 ...            1
Storage mode                      ...       InCore

Exchange-correlation integral derivatives        ... done   (      0.7 sec)
tr(F(y)Q(x)) contribution to the Hessian         ... done   (      0.0 sec)

------------------------
Batching info for step 5
------------------------
Number of perturbation per batch  ...            3
Number of batches                 ...            1
Storage mode                      ...       InCore

Response fock operator R(S(x)) (RI)              ... (RIJ)done   (      0.2 sec)

------------------------
Batching info for step 6
------------------------
Number of perturbation per batch  ...            3
Number of batches                 ...            1
Storage mode                      ...       InCore

XC Response fock operator R(S(x))                ... done   (      0.2 sec)
tr(F(y)S(x)) contribution to the Hessian         ... done   (      0.0 sec)
Transforming and finalizing RHSs                 ... done   (      0.0 sec)

----------------------------------------------
Solving the CP-SCF equations (RI)                ...
----------------------------------------------
     CP-SCF ITERATION   0: 
     CP-SCF ITERATION   1:      0.025231818801
     CP-SCF ITERATION   2:      0.001835747478
     CP-SCF ITERATION   3:      0.000056313185
     CP-SCF ITERATION   4:      0.000001157665
     CP-SCF ITERATION   5:      0.000000042475
     CP-SCF ITERATION   6:      0.000000000633

                                                 ... done   (      2.4 sec)
Forming perturbed density Hessian contributions  ... done   (      0.0 sec)
Making the perturbed densities                   ... done   (      0.0 sec)
2nd integral derivative contribs (RI)            ... done   (      0.3 sec)
Exchange-correlation Hessian                     ... done   (      1.0 sec)
Dispersion correction in the Hessian             ... 
The revPBE functional is recognized
Active option DFTDOPT                   ...         5   



------------------- 
Dispersion Gradient 
------------------- 
   1  :   -0.000019365   -0.000011781   -0.000008086
   2  :    0.000522292    0.000318011    0.000218290
   3  :   -0.000501585   -0.000305413   -0.000209643

  |G| =    0.002114465


The revPBE functional is recognized
Active option DFTDOPT                   ...         5   



------------------- 
Dispersion Gradient 
------------------- 
   1  :   -0.000019741   -0.000012029   -0.000008257
   2  :    0.000522781    0.000318288    0.000218480
   3  :   -0.000501681   -0.000305432   -0.000209656

  |G| =    0.002116344


The revPBE functional is recognized
Active option DFTDOPT                   ...         5   



------------------- 
Dispersion Gradient 
------------------- 
   1  :   -0.000019687   -0.000012003   -0.000008228
   2  :    0.000523004    0.000319066    0.000218581
   3  :   -0.000501983   -0.000306248   -0.000209796

  |G| =    0.002118596


The revPBE functional is recognized
Active option DFTDOPT                   ...         5   



------------------- 
Dispersion Gradient 
------------------- 
   1  :   -0.000019418   -0.000011807   -0.000008115
   2  :    0.000522066    0.000317234    0.000218189
   3  :   -0.000501280   -0.000304596   -0.000209502

  |G| =    0.002112208


The revPBE functional is recognized
Active option DFTDOPT                   ...         5   



------------------- 
Dispersion Gradient 
------------------- 
   1  :   -0.000019545   -0.000011900   -0.000008136
   2  :    0.000522309    0.000318011    0.000217677
   3  :   -0.000501397   -0.000305279   -0.000208971

  |G| =    0.002113226


The revPBE functional is recognized
Active option DFTDOPT                   ...         5   



------------------- 
Dispersion Gradient 
------------------- 
   1  :   -0.000019560   -0.000011909   -0.000008207
   2  :    0.000522762    0.000318287    0.000219093
   3  :   -0.000501867   -0.000305565   -0.000210327

  |G| =    0.002117577


Dispersion correction Hessian from Numerical Differentiation: 
                  0          1          2          3          4          5    
      0       0.000038   0.000000   0.000000   0.000000  -0.000027   0.000000
      1       0.000000   0.000000   0.000000   0.000000  -0.000020   0.000000
      2       0.000000   0.000000   0.000000   0.000000  -0.000011   0.000000
      3       0.000000   0.000000   0.000000   0.000000   0.000094   0.000000
      4      -0.000027  -0.000020  -0.000011   0.000094   0.000183   0.000000
      5       0.000000   0.000000   0.000000   0.000000   0.000000   0.000000
      6       0.000000   0.000000   0.000000   0.000000   0.000000   0.000000
      7       0.000000   0.000000   0.000000   0.000000   0.000000   0.000000
      8       0.000001   0.000001   0.000007  -0.000045  -0.000028  -0.000142
                   6          7          8    
      0       0.000000   0.000000   0.000001
      1       0.000000   0.000000   0.000001
      2       0.000000   0.000000   0.000007
      3       0.000000   0.000000  -0.000045
      4       0.000000   0.000000  -0.000028
      5       0.000000   0.000000  -0.000142
      6       0.000000   0.000000   0.000047
      7       0.000000   0.000000   0.000029
      8       0.000047   0.000029   0.000136

done   (      0.3 sec)
gCP correction in the Hessian                    ...  
-----------------
gCP hessian 
from Numerical Differentiation: 
-----------------
                  0          1          2          3          4          5    
      0       0.001375   0.001971   0.001353  -0.000772  -0.000887  -0.000609
      1       0.001971  -0.000662   0.000824  -0.000887   0.000145  -0.000371
      2       0.001353   0.000824  -0.001297  -0.000609  -0.000371   0.000430
      3      -0.000772  -0.000887  -0.000609   0.001005   0.001098   0.000754
      4      -0.000887   0.000145  -0.000371   0.001098  -0.000130   0.000459
      5      -0.000609  -0.000371   0.000430   0.000754   0.000459  -0.000484
      6      -0.000603  -0.001084  -0.000744  -0.000233  -0.000211  -0.000145
      7      -0.001084   0.000518  -0.000453  -0.000211  -0.000015  -0.000088
      8      -0.000744  -0.000453   0.000867  -0.000145  -0.000088   0.000053
                   6          7          8    
      0      -0.000603  -0.001084  -0.000744
      1      -0.001084   0.000518  -0.000453
      2      -0.000744  -0.000453   0.000867
      3      -0.000233  -0.000211  -0.000145
      4      -0.000211  -0.000015  -0.000088
      5      -0.000145  -0.000088   0.000053
      6       0.000836   0.001295   0.000889
      7       0.001295  -0.000503   0.000541
      8       0.000889   0.000541  -0.000920

done   (      0.0 sec)
Dipol derivatives                                ... done   (      0.1 sec)

-------
TIMINGS
-------

Total SCF Hessian time: 0 days 0 hours 0 min 6 sec 
                   F(y)            G[Q(x)]           CPSCF         Total
Table01         0.3  0.04         0.2  0.03         2.4  0.38         6.2 
Table01a        0.3  0.04,        0.2, 0.03,        2.4  0.38         6.2 
Table01b        0.3   4.4,        0.2,  3.3,        2.4  38.5         6.2 

Writing the Hessian file to the disk             ... done


Maximum memory used throughout the entire calculation: 131.7 MB
Warning: T+R between 5 and 0 = 6.145e-12

-----------------------
VIBRATIONAL FREQUENCIES
-----------------------

Scaling factor for frequencies =  1.000000000  (already applied!)

   0:         0.00 cm**-1
   1:         0.00 cm**-1
   2:         0.00 cm**-1
   3:         0.00 cm**-1
   4:         0.00 cm**-1
   5:         0.00 cm**-1
   6:       495.81 cm**-1
   7:       867.13 cm**-1
   8:      2079.43 cm**-1


------------
NORMAL MODES
------------

These modes are the Cartesian displacements weighted by the diagonal matrix
M(i,i)=1/sqrt(m[i]) where m[i] is the mass of the displaced atom
Thus, these vectors are normalized but *not* orthogonal

                  0          1          2          3          4          5    
      0       0.000000   0.000000   0.000000   0.000000   0.000000   0.000000
      1       0.000000   0.000000   0.000000   0.000000   0.000000   0.000000
      2       0.000000   0.000000   0.000000   0.000000   0.000000   0.000000
      3       0.000000   0.000000   0.000000   0.000000   0.000000   0.000000
      4       0.000000   0.000000   0.000000   0.000000   0.000000   0.000000
      5       0.000000   0.000000   0.000000   0.000000   0.000000   0.000000
      6       0.000000   0.000000   0.000000   0.000000   0.000000   0.000000
      7       0.000000   0.000000   0.000000   0.000000   0.000000   0.000000
      8       0.000000   0.000000   0.000000   0.000000   0.000000   0.000000
                   6          7          8    
      0       0.438306   0.357524   0.693096
      1      -0.189043   0.217684   0.421992
      2      -0.773366   0.149428   0.289660
      3      -0.070088  -0.424519  -0.057964
      4       0.030227  -0.258473  -0.035293
      5       0.123662  -0.177424  -0.024228
      6      -0.188604   0.582278  -0.404179
      7       0.081350   0.354525  -0.246081
      8       0.332790   0.243355  -0.168908


-----------
IR SPECTRUM
-----------

 Mode    freq (cm**-1)   T**2         TX         TY         TZ
-------------------------------------------------------------------
   6:       495.81    3.758947  (  0.935247  -0.403190  -1.649757)
   7:       867.13    3.123715  (  1.421826   0.865452   0.594237)
   8:      2079.43  516.475372  ( 18.281417  11.130503   7.640489)

The first frequency considered to be a vibration is 6
The total number of vibrations considered is 3


--------------------------
THERMOCHEMISTRY AT 298.15K
--------------------------

Temperature         ... 298.15 K
Pressure            ... 1.00 atm
Total Mass          ... 60.07 AMU

Throughout the following assumptions are being made:
  (1) The electronic state is orbitally nondegenerate
  (2) There are no thermally accessible electronically excited states
  (3) Hindered rotations indicated by low frequency modes are not
      treated as such but are treated as vibrations and this may
      cause some error
  (4) All equations used are the standard statistical mechanics
      equations for an ideal gas
  (5) All vibrations are strictly harmonic

freq.     495.81  E(vib)   ...       0.14 
freq.     867.13  E(vib)   ...       0.04 
freq.    2079.43  E(vib)   ...       0.00 

------------
INNER ENERGY
------------

The inner energy is: U= E(el) + E(ZPE) + E(vib) + E(rot) + E(trans)
    E(el)   - is the total energy from the electronic structure calculation
              = E(kin-el) + E(nuc-el) + E(el-el) + E(nuc-nuc)
    E(ZPE)  - the the zero temperature vibrational energy from the frequency calculation
    E(vib)  - the the finite temperature correction to E(ZPE) due to population
              of excited vibrational states
    E(rot)  - is the rotational thermal energy
    E(trans)- is the translational thermal energy

Summary of contributions to the inner energy U:
Electronic energy                ...   -511.23556199 Eh
Zero point energy                ...      0.00784231 Eh       4.92 kcal/mol
Thermal vibrational correction   ...      0.00028876 Eh       0.18 kcal/mol
Thermal rotational correction    ...      0.00141627 Eh       0.89 kcal/mol
Thermal translational correction ...      0.00141627 Eh       0.89 kcal/mol
-----------------------------------------------------------------------
Total thermal energy                   -511.22459838 Eh


Summary of corrections to the electronic energy:
(perhaps to be used in another calculation)
Total thermal correction                  0.00312130 Eh       1.96 kcal/mol
Non-thermal (ZPE) correction              0.00784231 Eh       4.92 kcal/mol
-----------------------------------------------------------------------
Total correction                          0.01096361 Eh       6.88 kcal/mol


--------
ENTHALPY
--------

The enthalpy is H = U + kB*T
                kB is Boltzmann's constant
Total free energy                 ...   -511.22459838 Eh 
Thermal Enthalpy correction       ...      0.00094421 Eh       0.59 kcal/mol
-----------------------------------------------------------------------
Total Enthalpy                    ...   -511.22365417 Eh

[file orca_tools/Tool-Symmetry/symmain.cpp, line 3070]: Error (ORCA_SYM): TMoleculeSymmetry::CleanUp molecule is linear but not aligned to z axis!

