
                                 *****************
                                 * O   R   C   A *
                                 *****************

           --- An Ab Initio, DFT and Semiempirical electronic structure package ---

                  #######################################################
                  #                        -***-                        #
                  #          Department of theory and spectroscopy      #
                  #               Directorship: Frank Neese             #
                  #        Max Planck Institute fuer Kohlenforschung    #
                  #                Kaiser Wilhelm Platz 1               #
                  #                 D-45470 Muelheim/Ruhr               #
                  #                      Germany                        #
                  #                                                     #
                  #                  All rights reserved                #
                  #                        -***-                        #
                  #######################################################


                         Program Version 4.2.1 -  RELEASE  -


 With contributions from (in alphabetic order):
   Daniel Aravena         : Magnetic Suceptibility
   Michael Atanasov       : Ab Initio Ligand Field Theory (pilot matlab implementation)
   Alexander A. Auer      : GIAO ZORA, VPT2
   Ute Becker             : Parallelization
   Giovanni Bistoni       : ED, misc. LED, open-shell LED, HFLD
   Martin Brehm           : Molecular dynamics
   Dmytro Bykov           : SCF Hessian
   Vijay G. Chilkuri      : MRCI spin determinant printing, contributions to CSF-ICE
   Dipayan Datta          : RHF DLPNO-CCSD density
   Achintya Kumar Dutta   : EOM-CC, STEOM-CC
   Dmitry Ganyushin       : Spin-Orbit,Spin-Spin,Magnetic field MRCI
   Miquel Garcia          : C-PCM Hessian, Gaussian charge scheme
   Yang Guo               : DLPNO-NEVPT2, CIM, IAO-localization
   Andreas Hansen         : Spin unrestricted coupled pair/coupled cluster methods
   Benjamin Helmich-Paris : CASSCF linear response (MC-RPA)
   Lee Huntington         : MR-EOM, pCC
   Robert Izsak           : Overlap fitted RIJCOSX, COSX-SCS-MP3, EOM
   Christian Kollmar      : KDIIS, OOCD, Brueckner-CCSD(T), CCSD density
   Simone Kossmann        : Meta GGA functionals, TD-DFT gradient, OOMP2, MP2 Hessian
   Martin Krupicka        : AUTO-CI
   Lucas Lang             : DCDCAS
   Dagmar Lenk            : GEPOL surface, SMD
   Dimitrios Liakos       : Extrapolation schemes; Compound Job, initial MDCI parallelization
   Dimitrios Manganas     : Further ROCIS development; embedding schemes
   Dimitrios Pantazis     : SARC Basis sets
   Taras Petrenko         : DFT Hessian,TD-DFT gradient, ASA, ECA, R-Raman, ABS, FL, XAS/XES, NRVS
   Peter Pinski           : DLPNO-MP2, DLPNO-MP2 Gradient
   Christoph Reimann      : Effective Core Potentials
   Marius Retegan         : Local ZFS, SOC
   Christoph Riplinger    : Optimizer, TS searches, QM/MM, DLPNO-CCSD(T), (RO)-DLPNO pert. Triples
   Tobias Risthaus        : Range-separated hybrids, TD-DFT gradient, RPA, STAB
   Michael Roemelt        : Original ROCIS implementation
   Masaaki Saitow         : Open-shell DLPNO-CCSD energy and density
   Barbara Sandhoefer     : DKH picture change effects
   Avijit Sen             : IP-ROCIS
   Kantharuban Sivalingam : CASSCF convergence, NEVPT2, FIC-MRCI
   Bernardo de Souza      : ESD, SOC TD-DFT
   Georgi Stoychev        : AutoAux, RI-MP2 NMR
   Willem Van den Heuvel  : Paramagnetic NMR
   Boris Wezisla          : Elementary symmetry handling
   Frank Wennmohs         : Technical directorship


 We gratefully acknowledge several colleagues who have allowed us to
 interface, adapt or use parts of their codes:
   Stefan Grimme, W. Hujo, H. Kruse,             : VdW corrections, initial TS optimization,
                  C. Bannwarth                     DFT functionals, gCP, sTDA/sTD-DF
   Ed Valeev, F. Pavosevic, A. Kumar             : LibInt (2-el integral package), F12 methods
   Garnet Chan, S. Sharma, J. Yang, R. Olivares  : DMRG
   Ulf Ekstrom                                   : XCFun DFT Library
   Mihaly Kallay                                 : mrcc  (arbitrary order and MRCC methods)
   Andreas Klamt, Michael Diedenhofen            : otool_cosmo (COSMO solvation model)
   Jiri Pittner, Ondrej Demel                    : Mk-CCSD
   Frank Weinhold                                : gennbo (NPA and NBO analysis)
   Christopher J. Cramer and Donald G. Truhlar   : smd solvation model
   Lars Goerigk                                  : TD-DFT with DH, B97 family of functionals
   V. Asgeirsson, H. Jonsson                     : NEB implementation
   FAccTs GmbH                                   : IRC, NEB, NEB-TS, Multilevel, MM, QM/MM, CI optimization
   S Lehtola, MJT Oliveira, MAL Marques          : LibXC Library


 Your calculation uses the libint2 library for the computation of 2-el integrals
 For citations please refer to: http://libint.valeyev.net

 Your ORCA version has been built with support for libXC version: 4.2.3
 For citations please refer to: https://tddft.org/programs/libxc/

 This ORCA versions uses:
   CBLAS   interface :  Fast vector & matrix operations
   LAPACKE interface :  Fast linear algebra routines
   SCALAPACK package :  Parallel linear algebra routines


Your calculation utilizes the atom-pairwise dispersion correction
with the Becke-Johnson damping scheme (D3BJ)
Cite in your paper:
S.Grimme, S.Ehrlich, L.Goerigk, J Comput Chem, (2011), 32, 1456–1465 
S.Grimme, J.Antony, S.Ehrlich and H.Krieg, J.Chem.Phys., 132, (2010), 154104 
   

Your calculation employs the composite approach B97-3c by Grimme and coworkers.
For the correct reference, please check the publication list of the Grimme group:
http://www.thch.uni-bonn.de/tc/index.php?section=publikationen&subsection=grimme#2017
   

XCFun DFT library Copyright 2009-2010 Ulf Ekstrom and contributors.
See http://admol.org/xcfun for more information. This is free soft-
ware; see the source code for copying conditions. There is ABSOLUTELY
NO WARRANTY; not even for MERCHANTABILITY or FITNESS FOR A PARTICULAR
PURPOSE. For details see the documentation. Scientific users of this 
library should cite U. Ekstrom, L. Visscher, R. Bast, A. J. Thorvald-
sen and K. Ruud; J.Chem.Theor.Comp. 2010, DOI: 10.1021/ct100117s
XCFun Version 0.99 
----- Orbital basis set information -----
Your calculation utilizes the basis: def2-mTZVP
----- AuxJ basis set information -----
Your calculation utilizes the basis: def2-mTZVP/J
cite the ECPs for Os [Def2-ECP] as follows:
Ce-Yb(ecp-28): M. Dolg, H. Stoll, H.Preuss, J. Chem. Phys., 1989, 90, 1730-1734.
Y-Cd(ecp-28), Hf-Hg(ecp-46): D. Andrae,U. Haeussermann, M. Dolg, H. Stoll, H. Preuss, Theor. Chim. Acta, 1990, 77, 123-141.
In-Sb(ecp-28), Tl-Bi(ecp-46): B. Metz, H. Stoll, M. Dolg, J. Chem. Phys., 2000, 113, 2563-2569.
Te-Xe(ecp-28), Po-Rn(ecp-46): K. A. Peterson, D. Figgen, E. Goll, H. Stoll, M. Dolg, J. Chem. Phys., 2003, 119, 11113-11123.
Rb(ecp-28), Cs(ecp-46): T. Leininger, A. Nicklass, W. Kuechle, H. Stoll, M. Dolg, A. Bergner, Chem. Phys. Lett., 1996, 255, 274-280.
Sr(ecp-28), Ba(ecp-46): M. Kaupp, P. V. Schleyer, H. Stoll and H. Preuss, J. Chem. Phys., 1991, 94, 1360-1366.
La(ecp-46): M. Dolg, H. Stoll, A. Savin, H. Preuss, Theor. Chim. Acta, 1989, 75, 173-194.
Lu(ecp-28): X. Cao, M. Dolg, J. Chem. Phys., 2001, 115, 7348-7355.

ECP parameters for Os [Def2-ECP] have been obtained from:
TURBOMOLE (7.0.2)

================================================================================
                                        WARNINGS
                       Please study these warnings very carefully!
================================================================================


WARNING: Geometry Optimization
  ===> : Switching off AutoStart
         For restart on a previous wavefunction, please use MOREAD

WARNING: No Hueckel Guess possible with ECP basis!
  ===> : Switching to HCORE guess!

INFO   : the flag for use of LIBINT has been found!

================================================================================
                                       INPUT FILE
================================================================================
NAME = tetracarbonyldicloro-OsII.inp
|  1> ! B97-3c Opt Freq TightOpt TightSCF
|  2> 
|  3> %pal
|  4>  nprocs 4
|  5> end
|  6> 
|  7> *xyz 0 1
|  8> Os      -2.1679073757     -2.0289671092     -0.3387606568                 
|  9> Cl      -3.0372703544     -3.6496832239     -1.8441474049                 
| 10> Cl      -0.4234205046     -1.5362632903     -1.8758703232                 
| 11> C       -3.3569624236     -0.5715815919     -1.2201718397                 
| 12> C       -3.6927131536     -2.4597060269      1.0044725773                 
| 13> C       -0.9792078014     -3.4858590523      0.5440718257                 
| 14> C       -1.4079301505     -0.6124075089      0.9767737411                 
| 15> O       -4.0027916911      0.2199912982     -1.6984317134                 
| 16> O       -4.5209926172     -2.6939433380      1.7334922408                 
| 17> O       -0.3337924404     -4.2768548577      1.0237546066                 
| 18> O       -0.9948472319      0.1569845224      1.6907636215                 
| 19> *
| 20> 
| 21>                          ****END OF INPUT****
================================================================================

                       *****************************
                       * Geometry Optimization Run *
                       *****************************

Geometry optimization settings:
Update method            Update   .... BFGS
Choice of coordinates    CoordSys .... Z-matrix Internals
Initial Hessian          InHess   .... Almoef's Model

Convergence Tolerances:
Energy Change            TolE     ....  1.0000e-06 Eh
Max. Gradient            TolMAXG  ....  1.0000e-04 Eh/bohr
RMS Gradient             TolRMSG  ....  3.0000e-05 Eh/bohr
Max. Displacement        TolMAXD  ....  1.0000e-03 bohr
RMS Displacement         TolRMSD  ....  6.0000e-04 bohr
Strict Convergence                ....  False
------------------------------------------------------------------------------
                        ORCA OPTIMIZATION COORDINATE SETUP
------------------------------------------------------------------------------

The optimization will be done in new redundant internal coordinates
Making redundant internal coordinates   ...  (new redundants) done
Evaluating the initial hessian          ...  (Almloef) done
Evaluating the coordinates              ...  done
Calculating the B-matrix                .... done
Calculating the G-matrix                .... done
Diagonalizing the G-matrix              .... done
The first mode is                       ....    3
The number of degrees of freedom        ....   27

    -----------------------------------------------------------------
                    Redundant Internal Coordinates


    -----------------------------------------------------------------
         Definition                    Initial Value    Approx d2E/dq
    -----------------------------------------------------------------
      1. B(Cl  1,Os  0)                  2.3767         0.086990   
      2. B(Cl  2,Os  0)                  2.3767         0.086990   
      3. B(C   3,Os  0)                  2.0772         0.116500   
      4. B(C   4,Os  0)                  2.0772         0.116486   
      5. B(C   5,Os  0)                  2.0772         0.116476   
      6. B(C   6,Os  0)                  2.0772         0.116486   
      7. B(O   7,C   3)                  1.1280         1.465067   
      8. B(O   8,C   4)                  1.1280         1.465143   
      9. B(O   9,C   5)                  1.1280         1.465269   
     10. B(O  10,C   6)                  1.1280         1.465144   
     11. A(C   4,Os  0,C   5)           89.9887         0.270961   
     12. A(Cl  2,Os  0,C   3)           90.0163         0.267924   
     13. A(Cl  1,Os  0,C   4)           89.9811         0.267919   
     14. A(Cl  1,Os  0,Cl  2)           90.0120         0.264924   
     15. A(Cl  1,Os  0,C   3)           90.0165         0.267923   
     16. A(Cl  2,Os  0,C   5)           90.0134         0.267915   
     17. A(Cl  2,Os  0,C   6)           89.9815         0.267919   
     18. A(C   3,Os  0,C   6)           89.9828         0.270970   
     19. A(C   3,Os  0,C   4)           89.9816         0.270969   
     20. A(C   4,Os  0,C   6)           90.0254         0.270965   
     21. A(C   5,Os  0,C   6)           89.9866         0.270961   
     22. A(Cl  1,Os  0,C   5)           90.0140         0.267915   
     23. L(Os  0,C   3,O   7,Cl  1, 2) 179.9793         0.390923   
     24. L(Os  0,C   3,O   7,Cl  1, 1) 180.0153         0.390923   
     25. L(Os  0,C   4,O   8,Cl  1, 1) 179.9708         0.390919   
     26. L(Os  0,C   4,O   8,Cl  1, 2) 180.0058         0.390919   
     27. L(Os  0,C   5,O   9,Cl  2, 2) 179.9837         0.390919   
     28. L(Os  0,C   5,O   9,Cl  2, 1) 180.0108         0.390919   
     29. L(Os  0,C   6,O  10,Cl  2, 2) 179.9967         0.390919   
     30. L(Os  0,C   6,O  10,Cl  2, 1) 179.9711         0.390919   
    -----------------------------------------------------------------

Number of atoms                         .... 11
Number of degrees of freedom            .... 30

         *************************************************************
         *                GEOMETRY OPTIMIZATION CYCLE   1            *
         *************************************************************
---------------------------------
CARTESIAN COORDINATES (ANGSTROEM)
---------------------------------
  Os    -2.167907   -2.028967   -0.338761
  Cl    -3.037270   -3.649683   -1.844147
  Cl    -0.423421   -1.536263   -1.875870
  C     -3.356962   -0.571582   -1.220172
  C     -3.692713   -2.459706    1.004473
  C     -0.979208   -3.485859    0.544072
  C     -1.407930   -0.612408    0.976774
  O     -4.002792    0.219991   -1.698432
  O     -4.520993   -2.693943    1.733492
  O     -0.333792   -4.276855    1.023755
  O     -0.994847    0.156985    1.690764

----------------------------
CARTESIAN COORDINATES (A.U.)
----------------------------
  NO LB      ZA    FRAG     MASS         X           Y           Z
   0 Os   16.0000*   0   190.200   -4.096751   -3.834192   -0.640165
   1 Cl   17.0000    0    35.453   -5.739609   -6.896902   -3.484934
   2 Cl   17.0000    0    35.453   -0.800149   -2.903117   -3.544881
   3 C     6.0000    0    12.011   -6.343740   -1.080133   -2.305791
   4 C     6.0000    0    12.011   -6.978217   -4.648171    1.898178
   5 C     6.0000    0    12.011   -1.850435   -6.587319    1.028147
   6 C     6.0000    0    12.011   -2.660602   -1.157282    1.845835
   7 O     8.0000    0    15.999   -7.564180    0.415723   -3.209571
   8 O     8.0000    0    15.999   -8.543438   -5.090815    3.275826
   9 O     8.0000    0    15.999   -0.630776   -8.082084    1.934616
  10 O     8.0000    0    15.999   -1.879989    0.296658    3.195080
* core charge reduced due to ECP

--------------------------------
INTERNAL COORDINATES (ANGSTROEM)
--------------------------------
 Os     0   0   0     0.000000000000     0.00000000     0.00000000
 Cl     1   0   0     2.376699807409     0.00000000     0.00000000
 Cl     1   2   0     2.376698891980    90.01197706     0.00000000
 C      1   2   3     2.077188033451    90.01651543    90.01631950
 C      1   2   3     2.077220305295    89.98108657   179.99792861
 C      1   2   3     2.077241922350    90.01401324   269.98658391
 C      1   2   3     2.077218629823   179.99344650     5.62487772
 O      4   1   2     1.128014002525   179.97816939   134.50462977
 O      5   1   2     1.127999848184   179.97047915   351.51084319
 O      6   1   2     1.127976472568   179.98366818   221.42395115
 O      7   1   4     1.127999620913   179.97095866   274.93815777

---------------------------
INTERNAL COORDINATES (A.U.)
---------------------------
 Os     0   0   0     0.000000000000     0.00000000     0.00000000
 Cl     1   0   0     4.491311738546     0.00000000     0.00000000
 Cl     1   2   0     4.491310008636    90.01197706     0.00000000
 C      1   2   3     3.925316511881    90.01651543    90.01631950
 C      1   2   3     3.925377496828    89.98108657   179.99792861
 C      1   2   3     3.925418347141    90.01401324   269.98658391
 C      1   2   3     3.925374330644   179.99344650     5.62487772
 O      4   1   2     2.131637540001   179.97816939   134.50462977
 O      5   1   2     2.131610792172   179.97047915   351.51084319
 O      6   1   2     2.131566618660   179.98366818   221.42395115
 O      7   1   4     2.131610362693   179.97095866   274.93815777

---------------------
BASIS SET INFORMATION
---------------------
There are 4 groups of distinct atoms

 Group   1 Type Os  : 8s7p6d contracted to 6s5p3d pattern {311111/31111/411}
 Group   2 Type Cl  : 14s9p1d contracted to 5s4p1d pattern {73211/6111/1}
 Group   3 Type C   : 11s6p1d contracted to 5s3p1d pattern {62111/411/1}
 Group   4 Type O   : 11s6p2d contracted to 5s3p2d pattern {62111/411/11}

Atom   0Os   basis set group =>   1
Atom   1Cl   basis set group =>   2
Atom   2Cl   basis set group =>   2
Atom   3C    basis set group =>   3
Atom   4C    basis set group =>   3
Atom   5C    basis set group =>   3
Atom   6C    basis set group =>   3
Atom   7O    basis set group =>   4
Atom   8O    basis set group =>   4
Atom   9O    basis set group =>   4
Atom  10O    basis set group =>   4
---------------------------------
AUXILIARY/J BASIS SET INFORMATION
---------------------------------
There are 4 groups of distinct atoms

 Group   1 Type Os  : 11s5p5d3f3g contracted to 8s5p5d2f3g pattern {41111111/11111/11111/21/111}
 Group   2 Type Cl  : 14s5p5d2f1g contracted to 8s4p3d1f1g pattern {71111111/2111/311/2/1}
 Group   3 Type C   : 8s3p3d contracted to 6s3p3d pattern {311111/111/111}
 Group   4 Type O   : 8s3p3d contracted to 6s3p3d pattern {311111/111/111}

Atom   0Os   basis set group =>   1
Atom   1Cl   basis set group =>   2
Atom   2Cl   basis set group =>   2
Atom   3C    basis set group =>   3
Atom   4C    basis set group =>   3
Atom   5C    basis set group =>   3
Atom   6C    basis set group =>   3
Atom   7O    basis set group =>   4
Atom   8O    basis set group =>   4
Atom   9O    basis set group =>   4
Atom  10O    basis set group =>   4
-------------------------
ECP PARAMETER INFORMATION
-------------------------

 Group 1, Type Os ECP Def2-ECP (replacing 60 core electrons, lmax=3)

Atom   0Os   ECP group =>   1



           ************************************************************
           *        Program running with 4 parallel MPI-processes     *
           *              working on a common directory               *
           ************************************************************
------------------------------------------------------------------------------
                           ORCA GTO INTEGRAL CALCULATION
                           -- RI-GTO INTEGRALS CHOSEN --
------------------------------------------------------------------------------

                         BASIS SET STATISTICS AND STARTUP INFO

Gaussian basis set:
 # of primitive gaussian shells          ...  217
 # of primitive gaussian functions       ...  443
 # of contracted shells                  ...  110
 # of contracted basis functions         ...  252
 Highest angular momentum                ...    2
 Maximum contraction depth               ...    7
Auxiliary gaussian basis set:
 # of primitive gaussian shells          ...  193
 # of primitive gaussian functions       ...  509
 # of contracted shells                  ...  153
 # of contracted aux-basis functions     ...  431
 Highest angular momentum                ...    4
 Maximum contraction depth               ...    7
Ratio of auxiliary to basis functions    ...  1.71
Integral package used                  ... LIBINT
 One Electron integrals                  
   ECP integrals                         ... done
 Ordering auxiliary basis shells         ... done
 Integral threshhold             Thresh  ...  2.500e-11
 Primitive cut-off               TCut    ...  2.500e-12
 Pre-screening matrix                    ... done
 Shell pair data                         ... 
 Ordering of the shell pairs             ... done (   0.001 sec) 5124 of 6105 pairs
 Determination of significant pairs      ... done (   0.000 sec)
 Creation of shell pair data             ... done (   0.001 sec)
 Storage of shell pair data              ... done (   0.002 sec)
 Shell pair data done in (   0.004 sec)
 Computing two index integrals           ... done
 Cholesky decomposition of the V-matrix  ... done


Timings:
 Total evaluation time                   ...   0.455 sec (  0.008 min)
 One electron matrix time                ...   0.312 sec (  0.005 min) = 68.6%
 Schwartz matrix evaluation time         ...   0.108 sec (  0.002 min) = 23.8%
 Two index repulsion integral time       ...   0.005 sec (  0.000 min) =  1.0%
 Cholesky decomposition of V             ...   0.008 sec (  0.000 min) =  1.7%
 Three index repulsion integral time     ...   0.000 sec (  0.000 min) =  0.0%



           ************************************************************
           *        Program running with 4 parallel MPI-processes     *
           *              working on a common directory               *
           ************************************************************
-------------------------------------------------------------------------------
                                 ORCA SCF
-------------------------------------------------------------------------------

------------
SCF SETTINGS
------------
Hamiltonian:
 Density Functional     Method          .... DFT(GTOs)
 Exchange Functional    Exchange        .... B973C
 Correlation Functional Correlation     .... B973C
 Gradients option       PostSCFGGA      .... off
   Density functional embedding theory  .... OFF
 RI-approximation to the Coulomb term is turned on
   Number of auxiliary basis functions  .... 431


General Settings:
 Integral files         IntName         .... tetracarbonyldicloro-OsII
 Hartree-Fock type      HFTyp           .... RHF
 Total Charge           Charge          ....    0
 Multiplicity           Mult            ....    1
 Number of Electrons    NEL             ....  106
 Basis Dimension        Dim             ....  252
 Nuclear Repulsion      ENuc            ....    855.6580046500 Eh

Convergence Acceleration:
 DIIS                   CNVDIIS         .... on
   Start iteration      DIISMaxIt       ....    12
   Startup error        DIISStart       ....  0.200000
   # of expansion vecs  DIISMaxEq       ....     5
   Bias factor          DIISBfac        ....   1.050
   Max. coefficient     DIISMaxC        ....  10.000
 Newton-Raphson         CNVNR           .... off
 SOSCF                  CNVSOSCF        .... off
 Level Shifting         CNVShift        .... on
   Level shift para.    LevelShift      ....    0.2500
   Turn off err/grad.   ShiftErr        ....    0.0010
 Zerner damping         CNVZerner       .... off
 Static damping         CNVDamp         .... on
   Fraction old density DampFac         ....    0.7000
   Max. Damping (<1)    DampMax         ....    0.9800
   Min. Damping (>=0)   DampMin         ....    0.0000
   Turn off err/grad.   DampErr         ....    0.1000
 Fernandez-Rico         CNVRico         .... off

SCF Procedure:
 Maximum # iterations   MaxIter         ....   125
 SCF integral mode      SCFMode         .... Direct
   Integral package                     .... LIBINT
 Reset frequency        DirectResetFreq ....    20
 Integral Threshold     Thresh          ....  2.500e-11 Eh
 Primitive CutOff       TCut            ....  2.500e-12 Eh

Convergence Tolerance:
 Convergence Check Mode ConvCheckMode   .... Total+1el-Energy
 Convergence forced     ConvForced      .... 0
 Energy Change          TolE            ....  1.000e-08 Eh
 1-El. energy change                    ....  1.000e-05 Eh
 DIIS Error             TolErr          ....  5.000e-07


Diagonalization of the overlap matrix:
Smallest eigenvalue                        ... 7.049e-04
Time for diagonalization                   ...    0.015 sec
Threshold for overlap eigenvalues          ... 1.000e-08
Number of eigenvalues below threshold      ... 0
Time for construction of square roots      ...    0.017 sec
Total time needed                          ...    0.032 sec

--------------------
INITIAL GUESS: HCORE
--------------------
                      -----------------
                      INTIAL GUESS DONE 
                      -----------------
-------------------
DFT GRID GENERATION
-------------------

General Integration Accuracy     IntAcc      ...  4.340
Radial Grid Type                 RadialGrid  ... Gauss-Chebyshev
Angular Grid (max. acc.)         AngularGrid ... Lebedev-194
Angular grid pruning method      GridPruning ... 3 (G Style)
Weight generation scheme         WeightScheme... Becke
Basis function cutoff            BFCut       ...    1.0000e-11
Integration weight cutoff        WCut        ...    1.0000e-14
Grids for H and He will be reduced by one unit

# of grid points (after initial pruning)     ...  40562 (   0.0 sec)
# of grid points (after weights+screening)   ...  38695 (   0.0 sec)
nearest neighbour list constructed           ...    0.0 sec
Grid point re-assignment to atoms done       ...    0.0 sec
Grid point division into batches done        ...    0.1 sec
Reduced shell lists constructed in    0.2 sec

Total number of grid points                  ...    38695
Total number of batches                      ...      611
Average number of points per batch           ...       63
Average number of grid points per atom       ...     3518
Average number of shells per batch           ...    60.53 (55.02%)
Average number of basis functions per batch  ...   154.53 (61.32%)
Average number of large shells per batch     ...    46.86 (77.43%)
Average number of large basis fcns per batch ...   120.12 (77.74%)
Maximum spatial batch extension              ...  25.30, 24.61, 25.90 au
Average spatial batch extension              ...   0.93,  0.92,  0.90 au

Time for grid setup =    0.214 sec

--------------
SCF ITERATIONS
--------------
ITER       Energy         Delta-E        Max-DP      RMS-DP      [F,P]     Damp
               ***  Starting incremental Fock matrix formation  ***
  0  -1288.9843922635   0.000000000000 8.09422116  0.08664535  2.2381638 0.7000
  1  -1368.7401385016 -79.755746238104 5.38135399  0.05769090  1.7745615 0.7000
  2  -1396.9019229233 -28.161784421754 3.40323850  0.04170240  1.2670014 0.7000
  3  -1417.5385854648 -20.636662541503 2.32864397  0.02947623  0.7991969 0.7000
  4  -1431.6706283210 -14.132042856148 1.61792921  0.02070239  0.5216487 0.7000
  5  -1441.5362809375  -9.865652616472 1.13074247  0.01450053  0.3701888 0.7000
  6  -1448.4156667165  -6.879385779000 0.79035086  0.01015775  0.2596952 0.7000
                               ***Turning on DIIS***
  7  -1453.2251573423  -4.809490625822 0.55211377  0.00712165  0.1807358 0.7000
  8  -1456.5902428476  -3.365085505311 0.38449798  0.00500257  0.1256144 0.7000
  9  -1458.9453378187  -2.355094971105 0.89660588  0.01168090  0.0884329 0.0000
 10  -1464.4412366468  -5.495898828061 0.01707810  0.00026375  0.0080696 0.0000
 11  -1464.4402071287   0.001029518063 0.00946171  0.00011436  0.0177851 0.0000
 12  -1464.4413638540  -0.001156725264 0.00341901  0.00004637  0.0076942 0.0000
 13  -1464.4416001772  -0.000236323290 0.00088703  0.00001672  0.0026145 0.0000
 14  -1464.4416316283  -0.000031451103 0.00066463  0.00001044  0.0011257 0.0000
 15  -1464.4416367979  -0.000005169539 0.00045067  0.00000957  0.0004106 0.0000
 16  -1464.4416376133  -0.000000815439 0.00006746  0.00000236  0.0001579 0.0000
 17  -1464.4416377684  -0.000000155064 0.00005772  0.00000167  0.0000419 0.0000
 18  -1464.4416377856  -0.000000017240 0.00004092  0.00000097  0.0000277 0.0000
 19  -1464.4416377759   0.000000009776 0.00001606  0.00000033  0.0000127 0.0000
               *** Restarting incremental Fock matrix formation ***
                                   *** Resetting DIIS ***
 20  -1464.4416378170  -0.000000041109 0.00003357  0.00000048  0.0000088 0.0000
 21  -1464.4416378084   0.000000008549 0.00002842  0.00000039  0.0000432 0.0000
 22  -1464.4416378398  -0.000000031414 0.00000457  0.00000009  0.0000053 0.0000
 23  -1464.4416378136   0.000000026226 0.00000074  0.00000002  0.0000014 0.0000
                            ***DIIS convergence achieved***

               *****************************************************
               *                     SUCCESS                       *
               *           SCF CONVERGED AFTER  24 CYCLES          *
               *****************************************************

Setting up the final grid:

General Integration Accuracy     IntAcc      ...  4.670
Radial Grid Type                 RadialGrid  ... Gauss-Chebyshev
Angular Grid (max. acc.)         AngularGrid ... Lebedev-302
Angular grid pruning method      GridPruning ... 3 (G Style)
Weight generation scheme         WeightScheme... Becke
Basis function cutoff            BFCut       ...    1.0000e-11
Integration weight cutoff        WCut        ...    1.0000e-14
Grids for H and He will be reduced by one unit

# of grid points (after initial pruning)     ...  74716 (   0.0 sec)
# of grid points (after weights+screening)   ...  70969 (   0.0 sec)
nearest neighbour list constructed           ...    0.0 sec
Grid point re-assignment to atoms done       ...    0.0 sec
Grid point division into batches done        ...    0.4 sec
Reduced shell lists constructed in    0.5 sec

Total number of grid points                  ...    70969
Total number of batches                      ...     1115
Average number of points per batch           ...       63
Average number of grid points per atom       ...     6452
Average number of shells per batch           ...    58.14 (52.86%)
Average number of basis functions per batch  ...   148.24 (58.83%)
Average number of large shells per batch     ...    44.32 (76.22%)
Average number of large basis fcns per batch ...   113.75 (76.73%)
Maximum spatial batch extension              ...  23.57, 24.29, 24.07 au
Average spatial batch extension              ...   0.77,  0.76,  0.77 au

Final grid set up in    0.6 sec
Final integration                            ... done (   0.4 sec)
Change in XC energy                          ...     0.003824318
Integrated number of electrons               ...   105.999964107
Previous integrated no of electrons          ...   105.999966137

----------------
TOTAL SCF ENERGY
----------------

Total Energy       :        -1464.43781351 Eh          -39849.37881 eV

Components:
Nuclear Repulsion  :          855.65800465 Eh           23283.63802 eV
Electronic Energy  :        -2320.09581816 Eh          -63133.01683 eV
One Electron Energy:        -3749.76941964 Eh         -102036.41334 eV
Two Electron Energy:         1429.67360147 Eh           38903.39651 eV

Virial components:
Potential Energy   :        -2865.51571738 Eh          -77974.64682 eV
Kinetic Energy     :         1401.07790387 Eh           38125.26802 eV
Virial Ratio       :            2.04522226


DFT components:
N(Alpha)           :       52.999982053485 electrons
N(Beta)            :       52.999982053485 electrons
N(Total)           :      105.999964106970 electrons
E(XC)              :     -121.497641170243 Eh       
DFET-embed. en.    :        0.000000000000 Eh       

---------------
SCF CONVERGENCE
---------------

  Last Energy change         ...   -1.8134e-08  Tolerance :   1.0000e-08
  Last MAX-Density change    ...    7.8685e-07  Tolerance :   1.0000e-07
  Last RMS-Density change    ...    2.3534e-08  Tolerance :   5.0000e-09
  Last DIIS Error            ...    5.5709e-07  Tolerance :   5.0000e-07

             **** THE GBW FILE WAS UPDATED (tetracarbonyldicloro-OsII.gbw) ****
             **** DENSITY FILE WAS UPDATED (tetracarbonyldicloro-OsII.scfp) ****
             **** ENERGY FILE WAS UPDATED (tetracarbonyldicloro-OsII.en.tmp) ****
             **** THE GBW FILE WAS UPDATED (tetracarbonyldicloro-OsII.gbw) ****
             **** DENSITY FILE WAS UPDATED (tetracarbonyldicloro-OsII.scfp) ****
----------------
ORBITAL ENERGIES
----------------

  NO   OCC          E(Eh)            E(eV) 
   0   2.0000    -100.596071     -2737.3583 
   1   2.0000    -100.595979     -2737.3558 
   2   2.0000     -18.886904      -513.9388 
   3   2.0000     -18.886901      -513.9387 
   4   2.0000     -18.875041      -513.6160 
   5   2.0000     -18.875037      -513.6159 
   6   2.0000     -10.073538      -274.1149 
   7   2.0000     -10.073533      -274.1148 
   8   2.0000     -10.064031      -273.8562 
   9   2.0000     -10.064022      -273.8560 
  10   2.0000      -9.182221      -249.8609 
  11   2.0000      -9.182172      -249.8596 
  12   2.0000      -7.015870      -190.9115 
  13   2.0000      -7.015855      -190.9111 
  14   2.0000      -7.006970      -190.6693 
  15   2.0000      -7.006874      -190.6667 
  16   2.0000      -7.006872      -190.6667 
  17   2.0000      -7.006815      -190.6651 
  18   2.0000      -3.410208       -92.7965 
  19   2.0000      -1.881360       -51.1944 
  20   2.0000      -1.872976       -50.9663 
  21   2.0000      -1.871805       -50.9344 
  22   2.0000      -1.123208       -30.5641 
  23   2.0000      -1.123109       -30.5614 
  24   2.0000      -1.114485       -30.3267 
  25   2.0000      -1.114268       -30.3208 
  26   2.0000      -0.706535       -19.2258 
  27   2.0000      -0.696691       -18.9579 
  28   2.0000      -0.585188       -15.9238 
  29   2.0000      -0.560190       -15.2436 
  30   2.0000      -0.558370       -15.1940 
  31   2.0000      -0.555564       -15.1177 
  32   2.0000      -0.499600       -13.5948 
  33   2.0000      -0.480033       -13.0624 
  34   2.0000      -0.478333       -13.0161 
  35   2.0000      -0.478267       -13.0143 
  36   2.0000      -0.474373       -12.9083 
  37   2.0000      -0.469507       -12.7759 
  38   2.0000      -0.465340       -12.6625 
  39   2.0000      -0.464495       -12.6395 
  40   2.0000      -0.462277       -12.5792 
  41   2.0000      -0.461963       -12.5707 
  42   2.0000      -0.457717       -12.4551 
  43   2.0000      -0.428400       -11.6574 
  44   2.0000      -0.321188        -8.7400 
  45   2.0000      -0.319636        -8.6977 
  46   2.0000      -0.317015        -8.6264 
  47   2.0000      -0.316483        -8.6119 
  48   2.0000      -0.315734        -8.5916 
  49   2.0000      -0.237298        -6.4572 
  50   2.0000      -0.235733        -6.4146 
  51   2.0000      -0.230634        -6.2759 
  52   2.0000      -0.222032        -6.0418 
  53   0.0000      -0.122022        -3.3204 
  54   0.0000      -0.121107        -3.2955 
  55   0.0000      -0.098079        -2.6689 
  56   0.0000      -0.090286        -2.4568 
  57   0.0000      -0.087592        -2.3835 
  58   0.0000      -0.086932        -2.3656 
  59   0.0000      -0.086016        -2.3406 
  60   0.0000      -0.083478        -2.2716 
  61   0.0000      -0.075906        -2.0655 
  62   0.0000      -0.075518        -2.0549 
  63   0.0000       0.000186         0.0051 
  64   0.0000       0.049903         1.3579 
  65   0.0000       0.068191         1.8556 
  66   0.0000       0.079618         2.1665 
  67   0.0000       0.112430         3.0594 
  68   0.0000       0.141820         3.8591 
  69   0.0000       0.142580         3.8798 
  70   0.0000       0.147659         4.0180 
  71   0.0000       0.154335         4.1997 
  72   0.0000       0.159239         4.3331 
  73   0.0000       0.198157         5.3921 
  74   0.0000       0.202315         5.5053 
  75   0.0000       0.210936         5.7398 
  76   0.0000       0.214035         5.8242 
  77   0.0000       0.228101         6.2069 
  78   0.0000       0.230158         6.2629 
  79   0.0000       0.248868         6.7720 
  80   0.0000       0.253235         6.8909 
  81   0.0000       0.258498         7.0341 
  82   0.0000       0.269235         7.3263 
  83   0.0000       0.272648         7.4191 
  84   0.0000       0.279634         7.6092 
  85   0.0000       0.287256         7.8166 
  86   0.0000       0.301664         8.2087 
  87   0.0000       0.305020         8.3000 
  88   0.0000       0.310434         8.4473 
  89   0.0000       0.316141         8.6026 
  90   0.0000       0.317231         8.6323 
  91   0.0000       0.322409         8.7732 
  92   0.0000       0.328707         8.9446 
  93   0.0000       0.339216         9.2305 
  94   0.0000       0.340975         9.2784 
  95   0.0000       0.350797         9.5457 
  96   0.0000       0.361372         9.8334 
  97   0.0000       0.366718         9.9789 
  98   0.0000       0.369679        10.0595 
  99   0.0000       0.376756        10.2520 
 100   0.0000       0.384026        10.4499 
 101   0.0000       0.389518        10.5993 
 102   0.0000       0.398938        10.8557 
 103   0.0000       0.400944        10.9102 
 104   0.0000       0.409579        11.1452 
 105   0.0000       0.419384        11.4120 
 106   0.0000       0.426357        11.6018 
 107   0.0000       0.438838        11.9414 
 108   0.0000       0.462357        12.5814 
 109   0.0000       0.465285        12.6611 
 110   0.0000       0.475968        12.9517 
 111   0.0000       0.495292        13.4776 
 112   0.0000       0.509695        13.8695 
 113   0.0000       0.513325        13.9683 
 114   0.0000       0.514903        14.0112 
 115   0.0000       0.529208        14.4005 
 116   0.0000       0.531052        14.4507 
 117   0.0000       0.535271        14.5655 
 118   0.0000       0.628580        17.1045 
 119   0.0000       0.633445        17.2369 
 120   0.0000       0.654232        17.8026 
 121   0.0000       0.667037        18.1510 
 122   0.0000       0.669257        18.2114 
 123   0.0000       0.677170        18.4267 
 124   0.0000       0.678689        18.4681 
 125   0.0000       0.681420        18.5424 
 126   0.0000       0.693323        18.8663 
 127   0.0000       0.697372        18.9765 
 128   0.0000       0.698331        19.0025 
 129   0.0000       0.744619        20.2621 
 130   0.0000       0.747732        20.3468 
 131   0.0000       0.765659        20.8346 
 132   0.0000       0.772871        21.0309 
 133   0.0000       0.801574        21.8119 
 134   0.0000       0.810029        22.0420 
 135   0.0000       0.820050        22.3147 
 136   0.0000       0.825461        22.4619 
 137   0.0000       0.827874        22.5276 
 138   0.0000       0.834746        22.7146 
 139   0.0000       0.845406        23.0047 
 140   0.0000       0.848480        23.0883 
 141   0.0000       0.850056        23.1312 
 142   0.0000       0.873003        23.7556 
 143   0.0000       0.897858        24.4320 
 144   0.0000       0.937963        25.5233 
 145   0.0000       1.022040        27.8111 
 146   0.0000       1.031678        28.0734 
 147   0.0000       1.044886        28.4328 
 148   0.0000       1.062114        28.9016 
 149   0.0000       1.111788        30.2533 
 150   0.0000       1.267190        34.4820 
 151   0.0000       1.277224        34.7550 
 152   0.0000       1.284119        34.9427 
 153   0.0000       1.305198        35.5162 
 154   0.0000       1.324840        36.0507 
 155   0.0000       1.354360        36.8540 
 156   0.0000       1.359739        37.0004 
 157   0.0000       1.402605        38.1668 
 158   0.0000       1.469850        39.9966 
 159   0.0000       1.478817        40.2407 
 160   0.0000       1.497145        40.7394 
 161   0.0000       1.511128        41.1199 
 162   0.0000       1.511473        41.1293 
 163   0.0000       1.515318        41.2339 
 164   0.0000       1.537481        41.8370 
 165   0.0000       1.550720        42.1972 
 166   0.0000       1.554855        42.3098 
 167   0.0000       1.556363        42.3508 
 168   0.0000       1.558239        42.4018 
 169   0.0000       1.592739        43.3406 
 170   0.0000       1.602089        43.5951 
 171   0.0000       1.605107        43.6772 
 172   0.0000       1.608935        43.7813 
 173   0.0000       1.621490        44.1230 
 174   0.0000       1.626673        44.2640 
 175   0.0000       1.627137        44.2766 
 176   0.0000       1.642518        44.6952 
 177   0.0000       1.642691        44.6999 
 178   0.0000       1.655075        45.0369 
 179   0.0000       1.655794        45.0564 
 180   0.0000       1.681487        45.7556 
 181   0.0000       1.690537        46.0019 
 182   0.0000       1.692701        46.0607 
 183   0.0000       1.847892        50.2837 
 184   0.0000       1.932714        52.5918 
 185   0.0000       1.965116        53.4735 
 186   0.0000       2.011364        54.7320 
 187   0.0000       2.036462        55.4149 
 188   0.0000       2.040622        55.5282 
 189   0.0000       2.041674        55.5568 
 190   0.0000       2.046141        55.6783 
 191   0.0000       2.049639        55.7735 
 192   0.0000       2.051403        55.8215 
 193   0.0000       2.099760        57.1374 
 194   0.0000       2.135706        58.1155 
 195   0.0000       2.199686        59.8565 
 196   0.0000       2.225694        60.5642 
 197   0.0000       2.235487        60.8307 
 198   0.0000       2.243053        61.0366 
 199   0.0000       2.293734        62.4157 
 200   0.0000       2.298525        62.5460 
 201   0.0000       2.331306        63.4381 
 202   0.0000       2.342230        63.7353 
 203   0.0000       2.366808        64.4041 
 204   0.0000       2.456229        66.8374 
 205   0.0000       2.469779        67.2061 
 206   0.0000       2.482983        67.5654 
 207   0.0000       2.497095        67.9494 
 208   0.0000       2.512052        68.3564 
 209   0.0000       2.520182        68.5776 
 210   0.0000       2.525976        68.7353 
 211   0.0000       2.529798        68.8393 
 212   0.0000       2.529885        68.8417 
 213   0.0000       2.643568        71.9351 
 214   0.0000       2.758034        75.0499 
 215   0.0000       2.788049        75.8667 
 216   0.0000       2.809495        76.4502 
 217   0.0000       2.825918        76.8971 
 218   0.0000       2.836134        77.1751 
 219   0.0000       2.849815        77.5474 
 220   0.0000       2.872716        78.1706 
 221   0.0000       2.873734        78.1983 
 222   0.0000       2.884429        78.4893 
 223   0.0000       2.887077        78.5613 
 224   0.0000       2.889460        78.6262 
 225   0.0000       2.898243        78.8652 
 226   0.0000       3.025003        82.3145 
 227   0.0000       3.027788        82.3903 
 228   0.0000       3.059960        83.2657 
 229   0.0000       3.098549        84.3158 
 230   0.0000       3.679213       100.1165 
 231   0.0000       3.680869       100.1615 
 232   0.0000       3.685152       100.2781 
 233   0.0000       3.986866       108.4881 
 234   0.0000       4.000472       108.8584 
 235   0.0000       4.005645       108.9992 
 236   0.0000       4.042412       109.9996 
 237   0.0000      21.920143       596.4774 
 238   0.0000      21.930641       596.7631 
 239   0.0000      21.931337       596.7820 
 240   0.0000      22.063040       600.3658 
 241   0.0000      24.814234       675.2296 
 242   0.0000      24.868974       676.7192 
 243   0.0000      43.180643      1175.0050 
 244   0.0000      43.184595      1175.1126 
 245   0.0000      43.208885      1175.7735 
 246   0.0000      43.283298      1177.7984 
 247   0.0000      55.124659      1500.0182 
 248   0.0000      55.124718      1500.0198 
 249   0.0000      55.159667      1500.9709 
 250   0.0000      64.160555      1745.8975 
 251   0.0000     441.237526     12006.6835 

                    ********************************
                    * MULLIKEN POPULATION ANALYSIS *
                    ********************************

-----------------------
MULLIKEN ATOMIC CHARGES
-----------------------
   0 Os:    0.031318
   1 Cl:   -0.286755
   2 Cl:   -0.286985
   3 C :    0.465544
   4 C :    0.163877
   5 C :    0.465209
   6 C :    0.164099
   7 O :   -0.179626
   8 O :   -0.178710
   9 O :   -0.179531
  10 O :   -0.178441
Sum of atomic charges:   -0.0000000

--------------------------------
MULLIKEN REDUCED ORBITAL CHARGES
--------------------------------
  0 Oss       :     2.805172  s :     2.805172
      pz      :     2.156873  p :     6.455628
      px      :     2.143170
      py      :     2.155586
      dz2     :     1.617289  d :     6.707881
      dxz     :     1.131340
      dyz     :     1.190006
      dx2y2   :     1.504631
      dxy     :     1.264616
  1 Cls       :     5.962265  s :     5.962265
      pz      :     3.734604  p :    11.304350
      px      :     3.860546
      py      :     3.709200
      dz2     :     0.004371  d :     0.020139
      dxz     :     0.003480
      dyz     :     0.005468
      dx2y2   :     0.003483
      dxy     :     0.003336
  2 Cls       :     5.962348  s :     5.962348
      pz      :     3.727111  p :    11.304484
      px      :     3.675615
      py      :     3.901757
      dz2     :     0.004468  d :     0.020153
      dxz     :     0.006048
      dyz     :     0.003002
      dx2y2   :     0.003462
      dxy     :     0.003173
  3 C s       :     3.340615  s :     3.340615
      pz      :     0.665334  p :     2.126680
      px      :     0.714375
      py      :     0.746971
      dz2     :     0.011370  d :     0.067161
      dxz     :     0.010093
      dyz     :     0.012928
      dx2y2   :     0.019384
      dxy     :     0.013385
  4 C s       :     3.508506  s :     3.508506
      pz      :     0.777705  p :     2.257790
      px      :     0.795398
      py      :     0.684687
      dz2     :     0.018528  d :     0.069828
      dxz     :     0.014847
      dyz     :     0.010809
      dx2y2   :     0.011937
      dxy     :     0.013707
  5 C s       :     3.340691  s :     3.340691
      pz      :     0.689434  p :     2.126935
      px      :     0.705125
      py      :     0.732376
      dz2     :     0.011920  d :     0.067165
      dxz     :     0.009852
      dyz     :     0.012527
      dx2y2   :     0.019325
      dxy     :     0.013540
  6 C s       :     3.508877  s :     3.508877
      pz      :     0.773559  p :     2.257195
      px      :     0.705851
      py      :     0.777785
      dz2     :     0.018196  d :     0.069829
      dxz     :     0.011218
      dyz     :     0.014128
      dx2y2   :     0.013620
      dxy     :     0.012667
  7 O s       :     3.852282  s :     3.852282
      pz      :     1.433004  p :     4.284395
      px      :     1.430154
      py      :     1.421237
      dz2     :     0.007807  d :     0.042949
      dxz     :     0.006522
      dyz     :     0.008052
      dx2y2   :     0.009824
      dxy     :     0.010744
  8 O s       :     3.849654  s :     3.849654
      pz      :     1.428386  p :     4.295734
      px      :     1.412938
      py      :     1.454410
      dz2     :     0.007812  d :     0.033321
      dxz     :     0.008810
      dyz     :     0.004904
      dx2y2   :     0.006269
      dxy     :     0.005526
  9 O s       :     3.852250  s :     3.852250
      pz      :     1.440663  p :     4.284346
      px      :     1.427192
      py      :     1.416490
      dz2     :     0.005275  d :     0.042936
      dxz     :     0.007042
      dyz     :     0.009434
      dx2y2   :     0.010979
      dxy     :     0.010206
 10 O s       :     3.849587  s :     3.849587
      pz      :     1.429590  p :     4.295655
      px      :     1.447666
      py      :     1.418399
      dz2     :     0.007592  d :     0.033199
      dxz     :     0.005668
      dyz     :     0.007907
      dx2y2   :     0.007333
      dxy     :     0.004699


                     *******************************
                     * LOEWDIN POPULATION ANALYSIS *
                     *******************************

----------------------
LOEWDIN ATOMIC CHARGES
----------------------
   0 Os:   -0.563989
   1 Cl:   -0.033846
   2 Cl:   -0.033941
   3 C :    0.349462
   4 C :    0.307929
   5 C :    0.349423
   6 C :    0.308058
   7 O :   -0.154608
   8 O :   -0.186965
   9 O :   -0.154558
  10 O :   -0.186966

-------------------------------
LOEWDIN REDUCED ORBITAL CHARGES
-------------------------------
  0 Oss       :     2.378677  s :     2.378677
      pz      :     2.295030  p :     6.875001
      px      :     2.290625
      py      :     2.289346
      dz2     :     1.651733  d :     7.310311
      dxz     :     1.327604
      dyz     :     1.360161
      dx2y2   :     1.567269
      dxy     :     1.403544
  1 Cls       :     5.718611  s :     5.718611
      pz      :     3.729554  p :    11.293117
      px      :     3.848599
      py      :     3.714965
      dz2     :     0.004640  d :     0.022118
      dxz     :     0.003738
      dyz     :     0.006342
      dx2y2   :     0.003706
      dxy     :     0.003691
  2 Cls       :     5.718592  s :     5.718592
      pz      :     3.722956  p :    11.293224
      px      :     3.688382
      py      :     3.881886
      dz2     :     0.004746  d :     0.022124
      dxz     :     0.007061
      dyz     :     0.003129
      dx2y2   :     0.003799
      dxy     :     0.003389
  3 C s       :     3.064483  s :     3.064483
      pz      :     0.730510  p :     2.448493
      px      :     0.816826
      py      :     0.901156
      dz2     :     0.021541  d :     0.137562
      dxz     :     0.021072
      dyz     :     0.027668
      dx2y2   :     0.035308
      dxy     :     0.031974
  4 C s       :     3.060704  s :     3.060704
      pz      :     0.876315  p :     2.486592
      px      :     0.918190
      py      :     0.692086
      dz2     :     0.034501  d :     0.144775
      dxz     :     0.038103
      dyz     :     0.020681
      dx2y2   :     0.025026
      dxy     :     0.026464
  5 C s       :     3.064494  s :     3.064494
      pz      :     0.747389  p :     2.448513
      px      :     0.810323
      py      :     0.890801
      dz2     :     0.022240  d :     0.137569
      dxz     :     0.020626
      dyz     :     0.026966
      dx2y2   :     0.035272
      dxy     :     0.032465
  6 C s       :     3.060712  s :     3.060712
      pz      :     0.868431  p :     2.486452
      px      :     0.733339
      py      :     0.884683
      dz2     :     0.033789  d :     0.144778
      dxz     :     0.023147
      dyz     :     0.034923
      dx2y2   :     0.026518
      dxy     :     0.026401
  7 O s       :     3.538116  s :     3.538116
      pz      :     1.448895  p :     4.431287
      px      :     1.477150
      py      :     1.505241
      dz2     :     0.022867  d :     0.185205
      dxz     :     0.030556
      dyz     :     0.041454
      dx2y2   :     0.030562
      dxy     :     0.059766
  8 O s       :     3.536409  s :     3.536409
      pz      :     1.501970  p :     4.458716
      px      :     1.516125
      py      :     1.440621
      dz2     :     0.031549  d :     0.191841
      dxz     :     0.075679
      dyz     :     0.021990
      dx2y2   :     0.034205
      dxy     :     0.028418
  9 O s       :     3.538089  s :     3.538089
      pz      :     1.453383  p :     4.431262
      px      :     1.475413
      py      :     1.502466
      dz2     :     0.021276  d :     0.185207
      dxz     :     0.030007
      dyz     :     0.041550
      dx2y2   :     0.032302
      dxy     :     0.060072
 10 O s       :     3.536410  s :     3.536410
      pz      :     1.499391  p :     4.458745
      px      :     1.455402
      py      :     1.503953
      dz2     :     0.030507  d :     0.191811
      dxz     :     0.031133
      dyz     :     0.065416
      dx2y2   :     0.029698
      dxy     :     0.035057


                      *****************************
                      * MAYER POPULATION ANALYSIS *
                      *****************************

  NA   - Mulliken gross atomic population
  ZA   - Total nuclear charge
  QA   - Mulliken gross atomic charge
  VA   - Mayer's total valence
  BVA  - Mayer's bonded valence
  FA   - Mayer's free valence

  ATOM       NA         ZA         QA         VA         BVA        FA
  0 Os    15.9687    16.0000     0.0313     5.2891     5.2891    -0.0000
  1 Cl    17.2868    17.0000    -0.2868     1.0898     1.0898    -0.0000
  2 Cl    17.2870    17.0000    -0.2870     1.0899     1.0899    -0.0000
  3 C      5.5345     6.0000     0.4655     3.2757     3.2757    -0.0000
  4 C      5.8361     6.0000     0.1639     3.2841     3.2841    -0.0000
  5 C      5.5348     6.0000     0.4652     3.2758     3.2758    -0.0000
  6 C      5.8359     6.0000     0.1641     3.2839     3.2839    -0.0000
  7 O      8.1796     8.0000    -0.1796     2.4455     2.4455    -0.0000
  8 O      8.1787     8.0000    -0.1787     2.3556     2.3556    -0.0000
  9 O      8.1795     8.0000    -0.1795     2.4456     2.4456    -0.0000
 10 O      8.1784     8.0000    -0.1784     2.3547     2.3547    -0.0000

  Mayer bond orders larger than 0.100000
B(  0-Os,  1-Cl) :   0.8127 B(  0-Os,  2-Cl) :   0.8130 B(  0-Os,  3-C ) :   0.7804 
B(  0-Os,  4-C ) :   0.8630 B(  0-Os,  5-C ) :   0.7802 B(  0-Os,  6-C ) :   0.8626 
B(  0-Os,  8-O ) :   0.1055 B(  0-Os, 10-O ) :   0.1054 B(  1-Cl,  6-C ) :   0.1442 
B(  2-Cl,  4-C ) :   0.1441 B(  3-C ,  5-C ) :   0.1303 B(  3-C ,  7-O ) :   2.3276 
B(  4-C ,  8-O ) :   2.2218 B(  5-C ,  9-O ) :   2.3277 B(  6-C , 10-O ) :   2.2211 


-------
TIMINGS
-------

Total SCF time: 0 days 0 hours 0 min 11 sec 

Total time                  ....      11.795 sec
Sum of individual times     ....      11.577 sec  ( 98.1%)

Fock matrix formation       ....       9.748 sec  ( 82.6%)
  Split-RI-J                ....       4.146 sec  ( 42.5% of F)
  XC integration            ....       5.502 sec  ( 56.4% of F)
    Basis function eval.    ....       0.998 sec  ( 18.1% of XC)
    Density eval.           ....       1.703 sec  ( 31.0% of XC)
    XC-Functional eval.     ....       0.634 sec  ( 11.5% of XC)
    XC-Potential eval.      ....       1.430 sec  ( 26.0% of XC)
Diagonalization             ....       0.673 sec  (  5.7%)
Density matrix formation    ....       0.035 sec  (  0.3%)
Population analysis         ....       0.024 sec  (  0.2%)
Initial guess               ....       0.029 sec  (  0.2%)
Orbital Transformation      ....       0.000 sec  (  0.0%)
Orbital Orthonormalization  ....       0.000 sec  (  0.0%)
DIIS solution               ....       0.270 sec  (  2.3%)
Grid generation             ....       0.798 sec  (  6.8%)


-------------------------------------------------------------------------------
                          DFT DISPERSION CORRECTION                            
                                                                               
                              DFTD3 V3.1  Rev 1                                
                          USING Becke-Johnson damping                          
-------------------------------------------------------------------------------
The B97-3c composite method is recognized
Using three-body term ABC
Active option DFTDOPT                   ...         4   

molecular C6(AA) [au] = 5186.043670 


            DFT-D V3
 parameters
 s6 scaling factor         :     1.0000 
 a1 scaling factor         :     0.3700 
 s8 scaling factor         :     1.5000 
 a2 scaling factor         :     4.1000 
 Damping factor alpha9(ATM):    16.0000 
 ad hoc parameters k1-k3   :    16.0000     1.3333    -4.0000 

 Edisp/kcal,au: -25.478569504442  -0.040602680660 
 E6   /kcal   : -10.258907484 
 E8   /kcal   : -15.249651018 
 E6(ABC)      :   0.029988998 
 % E8         :  59.852854045 
 % E6(ABC)    :  -0.117702832 

-------------------------   ----------------
Dispersion correction           -0.040602681
-------------------------   ----------------

------------------   -----------------
SRB correction            -0.043334130
------------------   -----------------

-------------------------   --------------------
FINAL SINGLE POINT ENERGY     -1464.521750324431
-------------------------   --------------------



           ************************************************************
           *        Program running with 4 parallel MPI-processes     *
           *              working on a common directory               *
           ************************************************************
------------------------------------------------------------------------------
                         ORCA SCF GRADIENT CALCULATION
------------------------------------------------------------------------------

Gradient of the Kohn-Sham DFT energy:
Kohn-Sham wavefunction type      ... RKS
Hartree-Fock exchange scaling    ...    0.000
Number of operators              ...    1
Number of atoms                  ...   11
Basis set dimensions             ...  252
Integral neglect threshold       ... 2.5e-11
Integral primitive cutoff        ... 2.5e-12

Nuclear repulsion gradient       ... done
One Electron Gradient            
  ECP gradient                   ... done
Pre-screening matrix             ... done
RI-J gradient                    ... done
Exchange-correlation gradient    ... done
Dispersion correction            ... done
SRB correction                   ... done

------------------
CARTESIAN GRADIENT
------------------

   1   Os  :    0.024274029   -0.031336072   -0.084470064
   2   Cl  :    0.000464475    0.002728316    0.003879877
   3   Cl  :   -0.002704265    0.000156979    0.003913479
   4   C   :   -0.032035954    0.039440224   -0.013170686
   5   C   :   -0.052544445   -0.010859291    0.052934460
   6   C   :    0.027054103   -0.033019614    0.030681037
   7   C   :    0.022365166    0.049714110    0.051901440
   8   O   :    0.009768813   -0.012016126    0.005331726
   9   O   :    0.022901596    0.005693913   -0.021473416
  10   O   :   -0.008905038    0.010893799   -0.008533187
  11   O   :   -0.010638479   -0.021396240   -0.020994668

Difference to translation invariance:
           :   -0.0000000000   -0.0000000000   -0.0000000001

Norm of the cartesian gradient     ...    0.1678860691
RMS gradient                       ...    0.0292252134
MAX gradient                       ...    0.0844700636

-------
TIMINGS
-------

Total SCF gradient time            ...        3.610 sec

One electron gradient       ....       1.100 sec  ( 30.5%)
Prescreening matrices       ....       0.063 sec  (  1.7%)
RI-J Coulomb gradient       ....       0.483 sec  ( 13.4%)
XC gradient                 ....       1.749 sec  ( 48.4%)
------------------------------------------------------------------------------
                         ORCA GEOMETRY RELAXATION STEP
------------------------------------------------------------------------------

Reading the OPT-File                    .... done
Getting information on internals        .... done
Copying old internal coords+grads       .... done
Making the new internal coordinates     .... (new redundants).... done
Validating the new internal coordinates .... (new redundants).... done
Calculating the B-matrix                .... done
Calculating the G,G- and P matrices     .... done
Transforming gradient to internals      .... done
Projecting the internal gradient        .... done
Number of atoms                         ....  11
Number of internal coordinates          ....  30
Current Energy                          .... -1464.521750324 Eh
Current gradient norm                   ....     0.167886069 Eh/bohr
Maximum allowed component of the step   ....  0.300
Current trust radius                    ....  0.300
Evaluating the initial hessian          ....  (Almloef) done
Projecting the Hessian                  .... done
Forming the augmented Hessian           .... done
Diagonalizing the augmented Hessian     .... done
Last element of RFO vector              ....  0.892435662
Lowest eigenvalues of augmented Hessian:
 -0.044331857  0.086989930  0.087120965  0.116478688  0.116486090
Length of the computed step             ....  0.505554290
Warning: the length of the step is outside the trust region - taking restricted step instead
The input lambda is                     ....    -0.044332
   iter:   1  x=   -0.097705  g=    3.102418 f(x)=     0.165585
   iter:   2  x=   -0.140146  g=    1.326326 f(x)=     0.056290
   iter:   3  x=   -0.156911  g=    0.777404 f(x)=     0.013034
   iter:   4  x=   -0.158704  g=    0.644992 f(x)=     0.001156
   iter:   5  x=   -0.158721  g=    0.632677 f(x)=     0.000011
   iter:   6  x=   -0.158721  g=    0.632559 f(x)=     0.000000
   iter:   7  x=   -0.158721  g=    0.632559 f(x)=     0.000000
The output lambda is                    ....    -0.158721 (7 iterations)
The final length of the internal step   ....  0.300000000
Converting the step to cartesian space:
 Initial RMS(Int)=    0.0547722558
Transforming coordinates:
 Iter   0:  RMS(Cart)=    0.0579727226 RMS(Int)=    0.0544670018
 Iter   1:  RMS(Cart)=    0.0015881628 RMS(Int)=    0.0008780240
 Iter   2:  RMS(Cart)=    0.0000633537 RMS(Int)=    0.0000382639
 Iter   3:  RMS(Cart)=    0.0000054272 RMS(Int)=    0.0000027051
 Iter   4:  RMS(Cart)=    0.0000017678 RMS(Int)=    0.0000013027
 Iter   5:  RMS(Cart)=    0.0000009283 RMS(Int)=    0.0000006664
 Iter   6:  RMS(Cart)=    0.0000004760 RMS(Int)=    0.0000003415
 Iter   7:  RMS(Cart)=    0.0000002441 RMS(Int)=    0.0000001750
 Iter   8:  RMS(Cart)=    0.0000001252 RMS(Int)=    0.0000000897
 Iter   9:  RMS(Cart)=    0.0000000642 RMS(Int)=    0.0000000460
done
Storing new coordinates                 .... done

                                .--------------------.
          ----------------------|Geometry convergence|-------------------------
          Item                value                   Tolerance       Converged
          ---------------------------------------------------------------------
          RMS gradient        0.0182316889            0.0000300000      NO
          MAX gradient        0.0431769959            0.0001000000      NO
          RMS step            0.0547722558            0.0006000000      NO
          MAX step            0.1568886333            0.0010000000      NO
          ........................................................
          Max(Bonds)      0.0830      Max(Angles)    2.13
          Max(Dihed)        0.00      Max(Improp)    0.00
          ---------------------------------------------------------------------

The optimization has not yet converged - more geometry cycles are needed


    ---------------------------------------------------------------------------
                         Redundant Internal Coordinates
                            (Angstroem and degrees)

        Definition                    Value    dE/dq     Step     New-Value
    ----------------------------------------------------------------------------
     1. B(Cl  1,Os  0)                2.3767 -0.004489  0.0097    2.3864   
     2. B(Cl  2,Os  0)                2.3767 -0.004483  0.0097    2.3864   
     3. B(C   3,Os  0)                2.0772  0.035314 -0.0679    2.0093   
     4. B(C   4,Os  0)                2.0772  0.043173 -0.0830    1.9942   
     5. B(C   5,Os  0)                2.0772  0.035317 -0.0679    2.0093   
     6. B(C   6,Os  0)                2.0772  0.043177 -0.0830    1.9942   
     7. B(O   7,C   3)                1.1280 -0.016286  0.0053    1.1333   
     8. B(O   8,C   4)                1.1280 -0.031878  0.0104    1.1384   
     9. B(O   9,C   5)                1.1280 -0.016364  0.0053    1.1333   
    10. B(O  10,C   6)                1.1280 -0.031778  0.0104    1.1384   
    11. A(C   4,Os  0,C   5)           89.99 -0.009665    1.29     91.28   
    12. A(Cl  2,Os  0,C   3)           90.02  0.009653   -1.29     88.72   
    13. A(Cl  1,Os  0,C   4)           89.98  0.002941   -0.39     89.59   
    14. A(Cl  1,Os  0,Cl  2)           90.01  0.010114   -1.36     88.65   
    15. A(Cl  1,Os  0,C   3)           90.02  0.009632   -1.29     88.73   
    16. A(Cl  2,Os  0,C   5)           90.01  0.009628   -1.29     88.72   
    17. A(Cl  2,Os  0,C   6)           89.98  0.002900   -0.38     89.60   
    18. A(C   3,Os  0,C   6)           89.98 -0.009677    1.29     91.28   
    19. A(C   3,Os  0,C   4)           89.98 -0.009622    1.29     91.27   
    20. A(C   4,Os  0,C   6)           90.03 -0.015955    2.13     92.16   
    21. A(C   5,Os  0,C   6)           89.99 -0.009601    1.28     91.27   
    22. A(Cl  1,Os  0,C   5)           90.01  0.009642   -1.29     88.72   
    23. L(Os  0,C   3,O   7,Cl  1, 2) 179.98  0.000983   -0.10    179.88   
    24. L(Os  0,C   3,O   7,Cl  1, 1) 180.02 -0.002624    0.27    180.29   
    25. L(Os  0,C   4,O   8,Cl  1, 1) 179.97 -0.002934    0.31    180.28   
    26. L(Os  0,C   4,O   8,Cl  1, 2) 180.01  0.000010   -0.00    180.00   
    27. L(Os  0,C   5,O   9,Cl  2, 2) 179.98  0.000985   -0.10    179.88   
    28. L(Os  0,C   5,O   9,Cl  2, 1) 180.01 -0.002627    0.27    180.28   
    29. L(Os  0,C   6,O  10,Cl  2, 2) 180.00  0.000004   -0.00    180.00   
    30. L(Os  0,C   6,O  10,Cl  2, 1) 179.97 -0.002881    0.30    180.27   
    ----------------------------------------------------------------------------

         *************************************************************
         *                GEOMETRY OPTIMIZATION CYCLE   2            *
         *************************************************************
---------------------------------
CARTESIAN COORDINATES (ANGSTROEM)
---------------------------------
  Os    -2.184962   -2.006961   -0.279455
  Cl    -3.036649   -3.628760   -1.808881
  Cl    -0.444292   -1.531187   -1.840989
  C     -3.318430   -0.619938   -1.189762
  C     -3.661921   -2.446062    0.986498
  C     -1.018389   -3.436581    0.515973
  C     -1.428488   -0.639311    0.959133
  O     -3.957184    0.165988   -1.698418
  O     -4.503139   -2.692940    1.712673
  O     -0.363758   -4.242909    0.969494
  O     -1.000624    0.140372    1.669682

----------------------------
CARTESIAN COORDINATES (A.U.)
----------------------------
  NO LB      ZA    FRAG     MASS         X           Y           Z
   0 Os   16.0000*   0   190.200   -4.128980   -3.792606   -0.528094
   1 Cl   17.0000    0    35.453   -5.738435   -6.857363   -3.418290
   2 Cl   17.0000    0    35.453   -0.839590   -2.893525   -3.478965
   3 C     6.0000    0    12.011   -6.270924   -1.171513   -2.248324
   4 C     6.0000    0    12.011   -6.920027   -4.622387    1.864211
   5 C     6.0000    0    12.011   -1.924476   -6.494197    0.975047
   6 C     6.0000    0    12.011   -2.699451   -1.208123    1.812499
   7 O     8.0000    0    15.999   -7.477995    0.313671   -3.209545
   8 O     8.0000    0    15.999   -8.509699   -5.088919    3.236484
   9 O     8.0000    0    15.999   -0.687403   -8.017936    1.832077
  10 O     8.0000    0    15.999   -1.890905    0.265264    3.155242
* core charge reduced due to ECP

--------------------------------
INTERNAL COORDINATES (ANGSTROEM)
--------------------------------
 Os     0   0   0     0.000000000000     0.00000000     0.00000000
 Cl     1   0   0     2.386366935504     0.00000000     0.00000000
 Cl     1   2   0     2.386353017028    88.65031663     0.00000000
 C      1   2   3     2.009288326480    88.70777982    88.73446768
 C      1   2   3     1.994204927241    89.59235504   179.99333917
 C      1   2   3     2.009331440533    88.70396893   271.26501866
 C      1   2   3     1.994196740858   178.24859034   359.83324788
 O      4   1   2     1.133321366657   179.69593788   161.82290859
 O      5   1   2     1.138388003518   179.72330564   180.75911812
 O      6   1   2     1.133308532390   179.70088618   250.83296146
 O      7   1   5     1.138355340685   179.72854762   359.40358560

---------------------------
INTERNAL COORDINATES (A.U.)
---------------------------
 Os     0   0   0     0.000000000000     0.00000000     0.00000000
 Cl     1   0   0     4.509579963148     0.00000000     0.00000000
 Cl     1   2   0     4.509553661041    88.65031663     0.00000000
 C      1   2   3     3.797004661132    88.70777982    88.73446768
 C      1   2   3     3.768501167402    89.59235504   179.99333917
 C      1   2   3     3.797086134884    88.70396893   271.26501866
 C      1   2   3     3.768485697380   178.24859034   359.83324788
 O      4   1   2     2.141667004703   179.69593788   161.82290859
 O      5   1   2     2.151241560791   179.72330564   180.75911812
 O      6   1   2     2.141642751453   179.70088618   250.83296146
 O      7   1   5     2.151179836982   179.72854762   359.40358560



           ************************************************************
           *        Program running with 4 parallel MPI-processes     *
           *              working on a common directory               *
           ************************************************************
 One Electron integrals                  ... done
 Pre-screening matrix                    ... done


           ************************************************************
           *        Program running with 4 parallel MPI-processes     *
           *              working on a common directory               *
           ************************************************************

Diagonalization of the overlap matrix:
Smallest eigenvalue                        ... 7.031e-04
Time for diagonalization                   ...    0.019 sec
Threshold for overlap eigenvalues          ... 1.000e-08
Number of eigenvalues below threshold      ... 0
Time for construction of square roots      ...    0.017 sec
Total time needed                          ...    0.036 sec

-------------------
DFT GRID GENERATION
-------------------

General Integration Accuracy     IntAcc      ...  4.340
Radial Grid Type                 RadialGrid  ... Gauss-Chebyshev
Angular Grid (max. acc.)         AngularGrid ... Lebedev-194
Angular grid pruning method      GridPruning ... 3 (G Style)
Weight generation scheme         WeightScheme... Becke
Basis function cutoff            BFCut       ...    1.0000e-11
Integration weight cutoff        WCut        ...    1.0000e-14
Grids for H and He will be reduced by one unit

# of grid points (after initial pruning)     ...  40562 (   0.0 sec)
# of grid points (after weights+screening)   ...  38654 (   0.0 sec)
nearest neighbour list constructed           ...    0.0 sec
Grid point re-assignment to atoms done       ...    0.0 sec
Grid point division into batches done        ...    0.1 sec
Reduced shell lists constructed in    0.2 sec

Total number of grid points                  ...    38654
Total number of batches                      ...      609
Average number of points per batch           ...       63
Average number of grid points per atom       ...     3514
Average number of shells per batch           ...    61.40 (55.82%)
Average number of basis functions per batch  ...   156.88 (62.26%)
Average number of large shells per batch     ...    47.33 (77.08%)
Average number of large basis fcns per batch ...   121.41 (77.39%)
Maximum spatial batch extension              ...  25.19, 24.64, 25.73 au
Average spatial batch extension              ...   0.93,  0.92,  0.90 au

Time for grid setup =    0.261 sec

--------------
SCF ITERATIONS
--------------
ITER       Energy         Delta-E        Max-DP      RMS-DP      [F,P]     Damp
               ***  Starting incremental Fock matrix formation  ***
  0  -1464.4501687225   0.000000000000 0.01608110  0.00023991  0.5099694 0.7000
  1  -1464.4529533782  -0.002784655710 0.00970971  0.00020588  0.3571023 0.7000
  2  -1464.4548791456  -0.001925767401 0.00459721  0.00015373  0.2499664 0.7000
                               ***Turning on DIIS***
  3  -1464.4562991124  -0.001419966781 0.00371443  0.00011455  0.1749883 0.7000
  4  -1464.4572827186  -0.000983606208 0.00455739  0.00008996  0.1224994 0.7000
  5  -1464.4579630331  -0.000680314500 0.00585136  0.00020116  0.0857369 0.0000
  6  -1464.4594864487  -0.001523415676 0.01295734  0.00014608  0.0044369 0.0000
  7  -1464.4590535704   0.000432878296 0.00591396  0.00006532  0.0101880 0.0000
  8  -1464.4594917509  -0.000438180427 0.00266747  0.00002851  0.0043604 0.0000
  9  -1464.4595771943  -0.000085443383 0.00049012  0.00000966  0.0014292 0.0000
 10  -1464.4595881878  -0.000010993496 0.00083674  0.00001175  0.0005958 0.0000
 11  -1464.4595881608   0.000000027002 0.00034910  0.00000501  0.0006780 0.0000
 12  -1464.4595897430  -0.000001582225 0.00010827  0.00000166  0.0001162 0.0000
 13  -1464.4595897864  -0.000000043406 0.00003952  0.00000128  0.0000244 0.0000
 14  -1464.4595898038  -0.000000017397 0.00001982  0.00000058  0.0000234 0.0000
 15  -1464.4595897901   0.000000013669 0.00000196  0.00000007  0.0000059 0.0000
 16  -1464.4595897805   0.000000009637 0.00000148  0.00000005  0.0000023 0.0000
                            ***DIIS convergence achieved***

               *****************************************************
               *                     SUCCESS                       *
               *           SCF CONVERGED AFTER  17 CYCLES          *
               *****************************************************

Setting up the final grid:

General Integration Accuracy     IntAcc      ...  4.670
Radial Grid Type                 RadialGrid  ... Gauss-Chebyshev
Angular Grid (max. acc.)         AngularGrid ... Lebedev-302
Angular grid pruning method      GridPruning ... 3 (G Style)
Weight generation scheme         WeightScheme... Becke
Basis function cutoff            BFCut       ...    1.0000e-11
Integration weight cutoff        WCut        ...    1.0000e-14
Grids for H and He will be reduced by one unit

# of grid points (after initial pruning)     ...  74716 (   0.0 sec)
# of grid points (after weights+screening)   ...  70869 (   0.0 sec)
nearest neighbour list constructed           ...    0.0 sec
Grid point re-assignment to atoms done       ...    0.0 sec
Grid point division into batches done        ...    0.4 sec
Reduced shell lists constructed in    0.5 sec

Total number of grid points                  ...    70869
Total number of batches                      ...     1114
Average number of points per batch           ...       63
Average number of grid points per atom       ...     6443
Average number of shells per batch           ...    58.93 (53.57%)
Average number of basis functions per batch  ...   150.39 (59.68%)
Average number of large shells per batch     ...    45.02 (76.39%)
Average number of large basis fcns per batch ...   115.53 (76.82%)
Maximum spatial batch extension              ...  23.60, 24.16, 23.93 au
Average spatial batch extension              ...   0.77,  0.77,  0.78 au

Final grid set up in    0.6 sec
Final integration                            ... done (   0.4 sec)
Change in XC energy                          ...     0.003731311
Integrated number of electrons               ...   105.999963199
Previous integrated no of electrons          ...   105.999911233
Total Energy       :        -1464.45585847 Eh          -39849.86984 eV
  Last Energy change         ...   -7.7944e-10  Tolerance :   1.0000e-08
  Last MAX-Density change    ...    9.7639e-07  Tolerance :   1.0000e-07
             **** THE GBW FILE WAS UPDATED (tetracarbonyldicloro-OsII.gbw) ****
             **** DENSITY FILE WAS UPDATED (tetracarbonyldicloro-OsII.scfp) ****
             **** ENERGY FILE WAS UPDATED (tetracarbonyldicloro-OsII.en.tmp) ****
             **** THE GBW FILE WAS UPDATED (tetracarbonyldicloro-OsII.gbw) ****
             **** DENSITY FILE WAS UPDATED (tetracarbonyldicloro-OsII.scfp) ****
Total SCF time: 0 days 0 hours 0 min 9 sec 


-------------------------------------------------------------------------------
                          DFT DISPERSION CORRECTION                            
                                                                               
                              DFTD3 V3.1  Rev 1                                
                          USING Becke-Johnson damping                          
-------------------------------------------------------------------------------
-------------------------   ----------------
Dispersion correction           -0.041980742
-------------------------   ----------------

------------------   -----------------
SRB correction            -0.045115434
------------------   -----------------

-------------------------   --------------------
FINAL SINGLE POINT ENERGY     -1464.542954645913
-------------------------   --------------------



           ************************************************************
           *        Program running with 4 parallel MPI-processes     *
           *              working on a common directory               *
           ************************************************************
------------------------------------------------------------------------------
                         ORCA SCF GRADIENT CALCULATION
------------------------------------------------------------------------------

Gradient of the Kohn-Sham DFT energy:
Kohn-Sham wavefunction type      ... RKS
Hartree-Fock exchange scaling    ...    0.000
Number of operators              ...    1
Number of atoms                  ...   11
Basis set dimensions             ...  252
Integral neglect threshold       ... 2.5e-11
Integral primitive cutoff        ... 2.5e-12

Nuclear repulsion gradient       ... done
One Electron Gradient            
  ECP gradient                   ... done
Pre-screening matrix             ... done
RI-J gradient                    ... done
Exchange-correlation gradient    ... done
Dispersion correction            ... done
SRB correction                   ... done

------------------
CARTESIAN GRADIENT
------------------

   1   Os  :    0.015847335   -0.020449426   -0.055131580
   2   Cl  :    0.002440256    0.004667199    0.004389993
   3   Cl  :   -0.004970659   -0.001326911    0.004512623
   4   C   :   -0.012428511    0.014995200   -0.004366894
   5   C   :   -0.026998540   -0.005855903    0.026789520
   6   C   :    0.010141267   -0.012162277    0.012196443
   7   C   :    0.011769110    0.025535456    0.026258580
   8   O   :    0.002998474   -0.003547391    0.002226262
   9   O   :    0.008207053    0.002209678   -0.007434607
  10   O   :   -0.003027686    0.003597077   -0.002156030
  11   O   :   -0.003978100   -0.007662702   -0.007284311

Difference to translation invariance:
           :   -0.0000000000   -0.0000000001   -0.0000000001

Norm of the cartesian gradient     ...    0.0887126769
RMS gradient                       ...    0.0154428948
MAX gradient                       ...    0.0551315797

-------
TIMINGS
-------

Total SCF gradient time            ...        3.615 sec

One electron gradient       ....       1.096 sec  ( 30.3%)
Prescreening matrices       ....       0.066 sec  (  1.8%)
RI-J Coulomb gradient       ....       0.500 sec  ( 13.8%)
XC gradient                 ....       1.753 sec  ( 48.5%)
------------------------------------------------------------------------------
                         ORCA GEOMETRY RELAXATION STEP
------------------------------------------------------------------------------

Reading the OPT-File                    .... done
Getting information on internals        .... done
Copying old internal coords+grads       .... done
Making the new internal coordinates     .... (new redundants).... done
Validating the new internal coordinates .... (new redundants).... done
Calculating the B-matrix                .... done
Calculating the G,G- and P matrices     .... done
Transforming gradient to internals      .... done
Projecting the internal gradient        .... done
[...]
     17       0.029340   0.194040   0.037047  -0.198624  -0.000591   0.052459
     18      -0.077141   0.111539   0.017700  -0.080632  -0.108955  -0.162623
     19      -0.031296   0.019684  -0.016455   0.108285   0.142679  -0.031917
     20       0.062692  -0.128866   0.005932  -0.066875  -0.102332   0.104681
     21       0.396907  -0.247272   0.358987  -0.106693   0.288316  -0.218600
     22       0.380385   0.202005   0.248129   0.244452   0.209100   0.070672
     23       0.061869   0.458760  -0.049802   0.406583  -0.037801   0.249140
     24      -0.108892  -0.086450  -0.017805  -0.176626   0.332502   0.248152
     25      -0.200392  -0.202052   0.031759   0.191042  -0.420208   0.247506
     26      -0.203088  -0.224091  -0.014219  -0.135699   0.266736   0.247347
     27       0.402206  -0.133584  -0.388178   0.052268  -0.199336  -0.187990
     28       0.356778   0.078551  -0.283301  -0.161475  -0.156825  -0.064047
     29       0.077248   0.522595   0.095170  -0.496053  -0.006300   0.268774
     30      -0.177754   0.254865   0.063030  -0.160440  -0.266781  -0.520004
     31      -0.062363   0.063327  -0.069484   0.224053   0.391078  -0.094158
     32       0.170919  -0.279687   0.036512  -0.147114  -0.284101   0.424536
                 12         13         14         15         16         17    
      0       0.102564  -0.096937   0.042204  -0.119043   0.042852  -0.075662
      1       0.103384   0.119953  -0.036885  -0.095804  -0.055324   0.092315
      2       0.038888  -0.068696  -0.112670   0.001720  -0.148871  -0.056042
      3      -0.152143   0.166058  -0.557478   0.236600   0.208403  -0.008781
      4       0.027508  -0.214357  -0.229444   0.464470   0.449208   0.012675
      5       0.205275   0.134316   0.345316   0.454443   0.465943  -0.005854
      6      -0.046464   0.157096   0.341460   0.496969  -0.477425  -0.009261
      7      -0.136279  -0.182229   0.452929   0.121752  -0.100796   0.012115
      8      -0.151934   0.123714   0.291733  -0.464275   0.473392  -0.007787
      9      -0.023502  -0.084321   0.010848  -0.029406  -0.015068   0.230913
     10      -0.045667   0.098863  -0.004948  -0.020688   0.019143  -0.276355
     11      -0.018065  -0.092383  -0.043433  -0.000066  -0.062485   0.325159
     12       0.013703   0.032854   0.055911  -0.028338   0.044613  -0.044615
     13      -0.103753  -0.055885  -0.029617   0.006453  -0.013983   0.054655
     14      -0.139659   0.021862  -0.121102   0.049590  -0.084288  -0.032991
     15      -0.051818  -0.097647   0.024573  -0.029538   0.038298   0.300402
     16      -0.045773   0.120167  -0.018409  -0.020559  -0.048905  -0.375451
     17      -0.021503  -0.041586  -0.033141  -0.000919  -0.021795   0.068581
     18       0.027479   0.061032   0.001182  -0.000000   0.004554  -0.042784
     19       0.102139  -0.057506  -0.054112  -0.028500  -0.048485   0.052721
     20       0.083889   0.029612  -0.095635  -0.047625  -0.085155  -0.032168
     21      -0.225925  -0.073344  -0.052382  -0.013677  -0.026615   0.282066
     22      -0.290711   0.077767   0.057110  -0.007755   0.033400  -0.348317
     23      -0.105122  -0.133699   0.080741  -0.000087  -0.039637   0.217684
     24      -0.123501   0.305011   0.088047  -0.057701   0.064933   0.018155
     25      -0.449809  -0.413599   0.035924  -0.050582   0.026191  -0.022596
     26      -0.456094   0.213552  -0.060164  -0.004443  -0.045081   0.013415
     27      -0.303458  -0.106753  -0.005485  -0.014235   0.034755   0.288462
     28      -0.285021   0.130347   0.007967  -0.008437  -0.044408  -0.351128
     29      -0.118716  -0.009165   0.115673  -0.002216   0.006333   0.205590
     30      -0.100694   0.377524  -0.122684  -0.059202  -0.040717   0.017528
     31       0.107383  -0.421035  -0.077340  -0.045806  -0.060305  -0.021632
     32       0.170993   0.236133   0.011731   0.007355  -0.042836   0.013097
                 18         19         20         21         22         23    
      0      -0.000483  -0.002563   0.011936  -0.073250   0.003189  -0.019738
      1       0.000813   0.003360  -0.015082  -0.059597  -0.002974   0.024662
      2      -0.000293  -0.001959  -0.041135   0.000501  -0.008958   0.067206
      3       0.023823   0.011553   0.001906  -0.007930   0.015905   0.013301
      4      -0.029363  -0.014353   0.006925  -0.021099  -0.010090   0.010574
      5       0.017913   0.008579   0.008943  -0.024237  -0.038317  -0.000386
      6      -0.010927   0.024424  -0.007207  -0.022086  -0.001877  -0.014123
      7       0.013468  -0.030089  -0.000465  -0.003102   0.020276  -0.004092
      8      -0.008604   0.018372   0.009256   0.024583   0.035949   0.012292
      9       0.356136  -0.381287   0.235102  -0.095199  -0.116287   0.016445
     10       0.456840   0.157814  -0.285735  -0.076863  -0.085267  -0.059003
     11       0.156106   0.453312   0.279743   0.000666  -0.017766   0.128373
     12      -0.099069   0.168041  -0.098048   0.384756   0.086760   0.382978
     13       0.119558  -0.204939  -0.063988   0.188842   0.373119   0.229055
     14      -0.074617   0.125717   0.029290  -0.207168   0.506854  -0.138584
     15      -0.412237   0.225558  -0.284011  -0.096255  -0.107079  -0.102972
     16      -0.386081   0.031578   0.350020  -0.078913  -0.111240   0.089523
     17      -0.199809  -0.569277  -0.108556  -0.001338  -0.006002   0.038967
     18       0.178042   0.064377   0.083145   0.268616   0.437704  -0.170093
     19      -0.222519  -0.079615   0.083535   0.343068   0.088524  -0.312420
     20       0.136030   0.047892   0.025538   0.201788  -0.452900  -0.284564
     21      -0.157820   0.127029   0.270140   0.032454   0.030553   0.088588
     22      -0.172856  -0.029263  -0.331065   0.026568   0.047977  -0.093692
     23      -0.075545  -0.213538   0.272272  -0.000493  -0.007958   0.059270
     24       0.046803  -0.080162  -0.077395   0.357154  -0.200436   0.338017
     25      -0.056169   0.097316  -0.013672   0.089234  -0.193431   0.072203
     26       0.034706  -0.059025   0.080539  -0.333181  -0.051198  -0.335477
     27       0.155962  -0.122297  -0.305225   0.032935   0.055190  -0.074052
     28       0.174430   0.024089   0.374021   0.027145   0.022720   0.104456
     29       0.074854   0.216132  -0.153226   0.000655   0.008611  -0.060857
     30      -0.084949  -0.031392   0.030240   0.168002  -0.180344  -0.210951
     31       0.104333   0.037833   0.072760   0.336808  -0.063524  -0.350849
     32      -0.064459  -0.023282   0.079432   0.330844   0.139621  -0.296240
                 24         25         26         27         28         29    
      0      -0.000483   0.001674  -0.036182   0.044783   0.019272  -0.001614
      1       0.000272  -0.004925   0.043245   0.037640  -0.022177  -0.001308
      2      -0.000184  -0.008744  -0.027883   0.000379  -0.060238  -0.000010
      3      -0.008694  -0.000617   0.010271   0.002584  -0.013958  -0.001294
      4       0.010371  -0.007232  -0.013367   0.016661  -0.014347  -0.001127
      5      -0.006499  -0.010760   0.007381   0.024268  -0.005689  -0.000116
      6       0.008618   0.005811   0.010452   0.016016   0.017619  -0.001365
      7      -0.010704  -0.000057  -0.012391  -0.002125   0.010221  -0.001033
      8       0.006130  -0.009291   0.007631  -0.024456  -0.007492   0.000144
      9       0.218573  -0.203996   0.090269  -0.510493  -0.157554  -0.000524
     10       0.183330   0.275386  -0.106187  -0.409863   0.173284  -0.001073
     11       0.003666   0.428156  -0.177064   0.008050   0.319597   0.000356
     12       0.352992  -0.132087   0.362678  -0.069808   0.143854   0.432387
     13      -0.445277  -0.243933  -0.436890  -0.134304   0.363538   0.139209
     14       0.254108  -0.276030   0.271868  -0.107407   0.383642  -0.352976
     15      -0.216748  -0.046820  -0.025928  -0.511344  -0.070326  -0.001308
     16      -0.171527   0.102036   0.046614  -0.412611   0.064580  -0.000112
     17       0.019185   0.530284   0.245032   0.014508   0.377261  -0.000184
     18      -0.346895   0.290532   0.366022  -0.102104  -0.388215   0.232634
     19       0.430610   0.057978  -0.449676  -0.040438  -0.061020   0.400687
     20      -0.265366  -0.276783   0.275405   0.078846   0.394365   0.348335
     21      -0.058554   0.038804  -0.016433   0.151390   0.040906  -0.000004
     22      -0.048279  -0.056223   0.018410   0.122033  -0.044722   0.000459
     23      -0.001891  -0.158004   0.048808  -0.002532  -0.096487  -0.000283
     24      -0.102226   0.048306  -0.103734   0.000498  -0.077107  -0.306540
     25       0.131968   0.076393   0.125161   0.033231  -0.113972  -0.100561
     26      -0.075898   0.075918  -0.077820   0.048465  -0.077548   0.247355
     27       0.058257   0.042205   0.013640   0.152042   0.025081   0.000547
     28       0.044329  -0.065353  -0.020899   0.122396  -0.024653  -0.000226
     29      -0.005354  -0.151551  -0.057032  -0.003955  -0.106609   0.000146
     30       0.102492  -0.091384  -0.104621   0.018653   0.128428  -0.166803
     31      -0.128359  -0.023854   0.130593  -0.008704   0.050450  -0.283766
     32       0.077446   0.077503  -0.077621  -0.041556  -0.081260  -0.243804
                  30         31         32    
      0      -0.000904  -0.000149  -0.000266
      1       0.001118   0.000178   0.000329
      2       0.003059  -0.000106   0.000902
      3      -0.000058  -0.001065   0.000198
      4       0.000399   0.001305   0.000436
      5       0.000723  -0.000789   0.000455
      6      -0.000347  -0.001071  -0.000460
      7       0.000166   0.001313  -0.000087
      8       0.000764  -0.000798   0.000477
      9      -0.113273   0.294848   0.279346
     10       0.138535  -0.360467  -0.341489
     11      -0.123947   0.326910   0.312887
     12       0.408044  -0.001734   0.169447
     13       0.133891   0.002703   0.056117
     14      -0.328898  -0.001863  -0.135741
     15       0.132085   0.347382  -0.330488
     16      -0.161843  -0.425618   0.405032
     17       0.058094   0.149036  -0.139127
     18      -0.218432  -0.002265  -0.091817
     19      -0.371488   0.002353  -0.155209
     20      -0.319262  -0.001782  -0.132650
     21       0.080700  -0.216548  -0.189900
     22      -0.098669   0.264789   0.232222
     23       0.090014  -0.242915  -0.213121
     24      -0.282051   0.000045  -0.111530
     25      -0.093055  -0.000454  -0.036859
     26       0.226724   0.000429   0.089558
     27      -0.094934  -0.256520   0.224937
     28       0.116277   0.314286  -0.275588
     29      -0.040264  -0.107672   0.094349
     30       0.151455   0.000389   0.060352
     31       0.256768  -0.000192   0.102225
     32       0.219896   0.000358   0.087464


-----------
IR SPECTRUM
-----------

 Mode    freq (cm**-1)   T**2         TX         TY         TZ
-------------------------------------------------------------------
   6:        68.78    0.719393  (  0.623928   0.567246   0.091318)
   7:        76.60    0.405499  ( -0.236688   0.140086   0.574329)
   8:        82.81    0.005430  (  0.013708  -0.053691   0.048573)
   9:        84.23    0.111509  ( -0.173041   0.233006  -0.165150)
  10:        88.92    0.001729  ( -0.009085   0.004652  -0.040312)
  11:        94.02    0.188029  ( -0.127272   0.203342   0.361224)
  12:        94.98    0.047606  (  0.168121   0.031747  -0.135401)
  13:       107.51    1.037880  ( -0.572745   0.714131  -0.447057)
  14:       137.26    0.142663  (  0.127643  -0.116064  -0.336005)
  15:       296.67   18.592921  ( -3.370837  -2.688593   0.042994)
  16:       319.36   12.167639  (  0.904547  -1.165731  -3.160776)
  17:       347.83   41.176068  (  3.664465  -4.511190   2.719730)
  18:       405.57    0.053173  (  0.123102  -0.170024   0.095449)
  19:       408.47    0.561335  (  0.427213  -0.527559   0.317027)
  20:       456.88    3.133333  ( -0.455944   0.591080   1.605015)
  21:       462.37   10.178245  (  2.473315   2.014946  -0.030852)
  22:       480.75    3.020133  (  1.328046   1.119706   0.051813)
  23:       481.86    0.261963  (  0.326432   0.024444  -0.393456)
  24:       553.59    0.005865  (  0.037531  -0.006898   0.066399)
  25:       555.56    6.162919  ( -0.510048   1.020135   2.205016)
  26:       579.24   44.155037  (  3.816545  -4.553206   2.976127)
  27:       580.05   63.382147  ( -6.107724  -5.106551  -0.031485)
  28:       603.14   72.382486  ( -2.436406   2.801472   7.654944)
  29:      2060.47  760.494587  ( 21.411486  17.378646  -0.159749)
  30:      2095.17  554.584340  (  6.214119  -7.805188 -21.331857)
  31:      2117.13  983.817703  ( 17.960223 -22.004912  13.305335)
  32:      2188.45   30.711018  (  1.431883  -1.871228  -5.015898)

The first frequency considered to be a vibration is 6
The total number of vibrations considered is 27


--------------------------
THERMOCHEMISTRY AT 298.15K
--------------------------

Temperature         ... 298.15 K
Pressure            ... 1.00 atm
Total Mass          ... 373.15 AMU

Throughout the following assumptions are being made:
  (1) The electronic state is orbitally nondegenerate
  (2) There are no thermally accessible electronically excited states
  (3) Hindered rotations indicated by low frequency modes are not
      treated as such but are treated as vibrations and this may
      cause some error
  (4) All equations used are the standard statistical mechanics
      equations for an ideal gas
  (5) All vibrations are strictly harmonic

freq.      68.78  E(vib)   ...       0.50 
freq.      76.60  E(vib)   ...       0.49 
freq.      82.81  E(vib)   ...       0.48 
freq.      84.23  E(vib)   ...       0.48 
freq.      88.92  E(vib)   ...       0.47 
freq.      94.02  E(vib)   ...       0.47 
freq.      94.98  E(vib)   ...       0.47 
freq.     107.51  E(vib)   ...       0.45 
freq.     137.26  E(vib)   ...       0.42 
freq.     296.67  E(vib)   ...       0.27 
freq.     319.36  E(vib)   ...       0.25 
freq.     347.83  E(vib)   ...       0.23 
freq.     405.57  E(vib)   ...       0.19 
freq.     408.47  E(vib)   ...       0.19 
freq.     456.88  E(vib)   ...       0.16 
freq.     462.37  E(vib)   ...       0.16 
freq.     480.75  E(vib)   ...       0.15 
freq.     481.86  E(vib)   ...       0.15 
freq.     553.59  E(vib)   ...       0.12 
freq.     555.56  E(vib)   ...       0.12 
freq.     579.24  E(vib)   ...       0.11 
freq.     580.05  E(vib)   ...       0.11 
freq.     603.14  E(vib)   ...       0.10 
freq.    2060.47  E(vib)   ...       0.00 
freq.    2095.17  E(vib)   ...       0.00 
freq.    2117.13  E(vib)   ...       0.00 
freq.    2188.45  E(vib)   ...       0.00 

------------
INNER ENERGY
------------

The inner energy is: U= E(el) + E(ZPE) + E(vib) + E(rot) + E(trans)
    E(el)   - is the total energy from the electronic structure calculation
              = E(kin-el) + E(nuc-el) + E(el-el) + E(nuc-nuc)
    E(ZPE)  - the the zero temperature vibrational energy from the frequency calculation
    E(vib)  - the the finite temperature correction to E(ZPE) due to population
              of excited vibrational states
    E(rot)  - is the rotational thermal energy
    E(trans)- is the translational thermal energy

Summary of contributions to the inner energy U:
Electronic energy                ...  -1464.55129415 Eh
Zero point energy                ...      0.03605807 Eh      22.63 kcal/mol
Thermal vibrational correction   ...      0.01039691 Eh       6.52 kcal/mol
Thermal rotational correction    ...      0.00141627 Eh       0.89 kcal/mol
Thermal translational correction ...      0.00141627 Eh       0.89 kcal/mol
-----------------------------------------------------------------------
Total thermal energy                  -1464.50200663 Eh


Summary of corrections to the electronic energy:
(perhaps to be used in another calculation)
Total thermal correction                  0.01322945 Eh       8.30 kcal/mol
Non-thermal (ZPE) correction              0.03605807 Eh      22.63 kcal/mol
-----------------------------------------------------------------------
Total correction                          0.04928752 Eh      30.93 kcal/mol


--------
ENTHALPY
--------

The enthalpy is H = U + kB*T
                kB is Boltzmann's constant
Total free energy                 ...  -1464.50200663 Eh 
Thermal Enthalpy correction       ...      0.00094421 Eh       0.59 kcal/mol
-----------------------------------------------------------------------
Total Enthalpy                    ...  -1464.50106242 Eh


Note: Only C1 symmetry has been detected, increase convergence thresholds 
      if your molecule has a higher symmetry. Symmetry factor of 1.0 is   
      used for the rotational entropy correction. 
 

Note: Rotational entropy computed according to Herzberg 
Infrared and Raman Spectra, Chapter V,1, Van Nostrand Reinhold, 1945 
Point Group:  C1, Symmetry Number:   1  
Rotational constants in cm-1:     0.021469     0.020822     0.020628 

Vibrational entropy computed according to the QRRHO of S. Grimme
Chem.Eur.J. 2012 18 9955


-------
ENTROPY
-------

The entropy contributions are T*S = T*(S(el)+S(vib)+S(rot)+S(trans))
     S(el)   - electronic entropy
     S(vib)  - vibrational entropy
     S(rot)  - rotational entropy
     S(trans)- translational entropy
The entropies will be listed as mutliplied by the temperature to get
units of energy

Electronic entropy                ...      0.00000000 Eh      0.00 kcal/mol
Vibrational entropy               ...      0.01904579 Eh     11.95 kcal/mol
Rotational entropy                ...      0.01498422 Eh      9.40 kcal/mol
Translational entropy             ...      0.02073619 Eh     13.01 kcal/mol
-----------------------------------------------------------------------
Final entropy term                ...      0.05476619 Eh     34.37 kcal/mol

In case the symmetry of your molecule has not been determined correctly
or in case you have a reason to use a different symmetry number we print 
out the resulting rotational entropy values for sn=1,12 :
 --------------------------------------------------------
|  sn= 1 | S(rot)=       0.01498422 Eh      9.40 kcal/mol|
|  sn= 2 | S(rot)=       0.01432976 Eh      8.99 kcal/mol|
|  sn= 3 | S(rot)=       0.01394693 Eh      8.75 kcal/mol|
|  sn= 4 | S(rot)=       0.01367530 Eh      8.58 kcal/mol|
|  sn= 5 | S(rot)=       0.01346462 Eh      8.45 kcal/mol|
|  sn= 6 | S(rot)=       0.01329247 Eh      8.34 kcal/mol|
|  sn= 7 | S(rot)=       0.01314693 Eh      8.25 kcal/mol|
|  sn= 8 | S(rot)=       0.01302085 Eh      8.17 kcal/mol|
|  sn= 9 | S(rot)=       0.01290964 Eh      8.10 kcal/mol|
|  sn=10 | S(rot)=       0.01281016 Eh      8.04 kcal/mol|
|  sn=11 | S(rot)=       0.01272017 Eh      7.98 kcal/mol|
|  sn=12 | S(rot)=       0.01263802 Eh      7.93 kcal/mol|
 --------------------------------------------------------


-------------------
GIBBS FREE ENERGY
-------------------

The Gibbs free energy is G = H - T*S

Total enthalpy                    ...  -1464.50106242 Eh 
Total entropy correction          ...     -0.05476619 Eh    -34.37 kcal/mol
-----------------------------------------------------------------------
Final Gibbs free energy         ...  -1464.55582862 Eh

For completeness - the Gibbs free energy minus the electronic energy
G-E(el)                           ...     -0.00453447 Eh     -2.85 kcal/mol


Timings for individual modules:

Sum of individual times         ...      331.817 sec (=   5.530 min)
GTO integral calculation        ...       11.782 sec (=   0.196 min)   3.6 %
SCF iterations                  ...      111.903 sec (=   1.865 min)  33.7 %
SCF Gradient evaluation         ...       57.284 sec (=   0.955 min)  17.3 %
Geometry relaxation             ...        0.558 sec (=   0.009 min)   0.2 %
Analytical frequency calculation...      150.290 sec (=   2.505 min)  45.3 %
                             ****ORCA TERMINATED NORMALLY****
TOTAL RUN TIME: 0 days 0 hours 5 minutes 33 seconds 447 msec
