
                                 *****************
                                 * O   R   C   A *
                                 *****************

           --- An Ab Initio, DFT and Semiempirical electronic structure package ---

                  #######################################################
                  #                        -***-                        #
                  #          Department of theory and spectroscopy      #
                  #               Directorship: Frank Neese             #
                  #        Max Planck Institute fuer Kohlenforschung    #
                  #                Kaiser Wilhelm Platz 1               #
                  #                 D-45470 Muelheim/Ruhr               #
                  #                      Germany                        #
                  #                                                     #
                  #                  All rights reserved                #
                  #                        -***-                        #
                  #######################################################


                         Program Version 4.2.1 -  RELEASE  -


 With contributions from (in alphabetic order):
   Daniel Aravena         : Magnetic Suceptibility
   Michael Atanasov       : Ab Initio Ligand Field Theory (pilot matlab implementation)
   Alexander A. Auer      : GIAO ZORA, VPT2
   Ute Becker             : Parallelization
   Giovanni Bistoni       : ED, misc. LED, open-shell LED, HFLD
   Martin Brehm           : Molecular dynamics
   Dmytro Bykov           : SCF Hessian
   Vijay G. Chilkuri      : MRCI spin determinant printing, contributions to CSF-ICE
   Dipayan Datta          : RHF DLPNO-CCSD density
   Achintya Kumar Dutta   : EOM-CC, STEOM-CC
   Dmitry Ganyushin       : Spin-Orbit,Spin-Spin,Magnetic field MRCI
   Miquel Garcia          : C-PCM Hessian, Gaussian charge scheme
   Yang Guo               : DLPNO-NEVPT2, CIM, IAO-localization
   Andreas Hansen         : Spin unrestricted coupled pair/coupled cluster methods
   Benjamin Helmich-Paris : CASSCF linear response (MC-RPA)
   Lee Huntington         : MR-EOM, pCC
   Robert Izsak           : Overlap fitted RIJCOSX, COSX-SCS-MP3, EOM
   Christian Kollmar      : KDIIS, OOCD, Brueckner-CCSD(T), CCSD density
   Simone Kossmann        : Meta GGA functionals, TD-DFT gradient, OOMP2, MP2 Hessian
   Martin Krupicka        : AUTO-CI
   Lucas Lang             : DCDCAS
   Dagmar Lenk            : GEPOL surface, SMD
   Dimitrios Liakos       : Extrapolation schemes; Compound Job, initial MDCI parallelization
   Dimitrios Manganas     : Further ROCIS development; embedding schemes
   Dimitrios Pantazis     : SARC Basis sets
   Taras Petrenko         : DFT Hessian,TD-DFT gradient, ASA, ECA, R-Raman, ABS, FL, XAS/XES, NRVS
   Peter Pinski           : DLPNO-MP2, DLPNO-MP2 Gradient
   Christoph Reimann      : Effective Core Potentials
   Marius Retegan         : Local ZFS, SOC
   Christoph Riplinger    : Optimizer, TS searches, QM/MM, DLPNO-CCSD(T), (RO)-DLPNO pert. Triples
   Tobias Risthaus        : Range-separated hybrids, TD-DFT gradient, RPA, STAB
   Michael Roemelt        : Original ROCIS implementation
   Masaaki Saitow         : Open-shell DLPNO-CCSD energy and density
   Barbara Sandhoefer     : DKH picture change effects
   Avijit Sen             : IP-ROCIS
   Kantharuban Sivalingam : CASSCF convergence, NEVPT2, FIC-MRCI
   Bernardo de Souza      : ESD, SOC TD-DFT
   Georgi Stoychev        : AutoAux, RI-MP2 NMR
   Willem Van den Heuvel  : Paramagnetic NMR
   Boris Wezisla          : Elementary symmetry handling
   Frank Wennmohs         : Technical directorship


 We gratefully acknowledge several colleagues who have allowed us to
 interface, adapt or use parts of their codes:
   Stefan Grimme, W. Hujo, H. Kruse,             : VdW corrections, initial TS optimization,
                  C. Bannwarth                     DFT functionals, gCP, sTDA/sTD-DF
   Ed Valeev, F. Pavosevic, A. Kumar             : LibInt (2-el integral package), F12 methods
   Garnet Chan, S. Sharma, J. Yang, R. Olivares  : DMRG
   Ulf Ekstrom                                   : XCFun DFT Library
   Mihaly Kallay                                 : mrcc  (arbitrary order and MRCC methods)
   Andreas Klamt, Michael Diedenhofen            : otool_cosmo (COSMO solvation model)
   Jiri Pittner, Ondrej Demel                    : Mk-CCSD
   Frank Weinhold                                : gennbo (NPA and NBO analysis)
   Christopher J. Cramer and Donald G. Truhlar   : smd solvation model
   Lars Goerigk                                  : TD-DFT with DH, B97 family of functionals
   V. Asgeirsson, H. Jonsson                     : NEB implementation
   FAccTs GmbH                                   : IRC, NEB, NEB-TS, Multilevel, MM, QM/MM, CI optimization
   S Lehtola, MJT Oliveira, MAL Marques          : LibXC Library


 Your calculation uses the libint2 library for the computation of 2-el integrals
 For citations please refer to: http://libint.valeyev.net

 Your ORCA version has been built with support for libXC version: 4.2.3
 For citations please refer to: https://tddft.org/programs/libxc/

 This ORCA versions uses:
   CBLAS   interface :  Fast vector & matrix operations
   LAPACKE interface :  Fast linear algebra routines
   SCALAPACK package :  Parallel linear algebra routines


Your calculation utilizes the geometrical counterpoise correction gCP
Please cite in your paper:
H.Kruse, S. Grimme J.Chem.Phys., 136, (2012), 154101 
   

Your calculation utilizes the atom-pairwise dispersion correction
based on tight binding partial charges (D4)
Cite in your paper:
E.Caldeweyher, C.Bannwarth, S.Grimme, J.Chem.Phys., (2017), 147, 034112.
E.Caldeweyher, S.Ehlert, A.Hansen, H.Neugebauer, S.Grimme, J.Chem.Phys., (2018), in progress.
   

----- Orbital basis set information -----
Your calculation utilizes the basis: def2-SVP
   F. Weigend and R. Ahlrichs, Phys. Chem. Chem. Phys. 7, 3297 (2005).

----- AuxJ basis set information -----
Your calculation utilizes the auxiliary basis: def2/J
   F. Weigend, Phys. Chem. Chem. Phys. 8, 1057 (2006).

================================================================================
                                        WARNINGS
                       Please study these warnings very carefully!
================================================================================


WARNING: Geometry Optimization
  ===> : Switching off AutoStart
         For restart on a previous wavefunction, please use MOREAD

INFO   : the flag for use of LIBINT has been found!

================================================================================
                                       INPUT FILE
================================================================================
NAME = tetrahedrane.inp
|  1> ! revPBE D4 gCP(DFT/SVP) def2-SVP Opt Freq TightOpt TightSCF Grid4 FinalGrid5 LargePrint
|  2> 
|  3> %pal
|  4>  nprocs 12
|  5> end
|  6> 
|  7> *xyz 0 1
|  8> C        0.525700185     -0.525700178     -0.525700178
|  9> C       -0.525700178     -0.525700178      0.525700185
| 10> C       -0.525700178      0.525700185     -0.525700178
| 11> C        0.525700185      0.525700185      0.525700185
| 12> H        1.149238474     -1.149238470     -1.149238470
| 13> H       -1.149238470     -1.149238470      1.149238474
| 14> H        1.149238475      1.149238475      1.149238475
| 15> H       -1.149238470      1.149238474     -1.149238470
| 16> *
| 17> 
| 18>                          ****END OF INPUT****
================================================================================

                       *****************************
                       * Geometry Optimization Run *
                       *****************************

Geometry optimization settings:
Update method            Update   .... BFGS
Choice of coordinates    CoordSys .... Z-matrix Internals
Initial Hessian          InHess   .... Almoef's Model

Convergence Tolerances:
Energy Change            TolE     ....  1.0000e-06 Eh
Max. Gradient            TolMAXG  ....  1.0000e-04 Eh/bohr
RMS Gradient             TolRMSG  ....  3.0000e-05 Eh/bohr
Max. Displacement        TolMAXD  ....  1.0000e-03 bohr
RMS Displacement         TolRMSD  ....  6.0000e-04 bohr
Strict Convergence                ....  False
------------------------------------------------------------------------------
                        ORCA OPTIMIZATION COORDINATE SETUP
------------------------------------------------------------------------------

The optimization will be done in new redundant internal coordinates
Making redundant internal coordinates   ...  (new redundants) done
Evaluating the initial hessian          ...  (Almloef) done
Evaluating the coordinates              ...  done
Calculating the B-matrix                .... done
Calculating the G-matrix                .... done
Diagonalizing the G-matrix              .... done
The first mode is                       ....   58
The number of degrees of freedom        ....   18

    -----------------------------------------------------------------
                    Redundant Internal Coordinates


    -----------------------------------------------------------------
         Definition                    Initial Value    Approx d2E/dq
    -----------------------------------------------------------------
      1. B(C   1,C   0)                  1.4869         0.437656   
      2. B(C   2,C   1)                  1.4869         0.437656   
      3. B(C   2,C   0)                  1.4869         0.437656   
      4. B(C   3,C   2)                  1.4869         0.437656   
      5. B(C   3,C   1)                  1.4869         0.437656   
      6. B(C   3,C   0)                  1.4869         0.437656   
      7. B(H   4,C   0)                  1.0800         0.373575   
      8. B(H   5,C   1)                  1.0800         0.373575   
      9. B(H   6,C   3)                  1.0800         0.373575   
     10. B(H   7,C   2)                  1.0800         0.373575   
     11. A(C   2,C   0,C   3)           60.0000         0.383735   
     12. A(C   1,C   0,C   3)           60.0000         0.383735   
     13. A(C   3,C   0,H   4)          144.7356         0.334940   
     14. A(C   1,C   0,C   2)           60.0000         0.383735   
     15. A(C   2,C   0,H   4)          144.7356         0.334940   
     16. A(C   1,C   0,H   4)          144.7356         0.334940   
     17. A(C   2,C   1,C   3)           60.0000         0.383735   
     18. A(C   0,C   1,C   3)           60.0000         0.383735   
     19. A(C   0,C   1,C   2)           60.0000         0.383735   
     20. A(C   3,C   1,H   5)          144.7356         0.334940   
     21. A(C   2,C   1,H   5)          144.7356         0.334940   
     22. A(C   0,C   1,H   5)          144.7356         0.334940   
     23. A(C   3,C   2,H   7)          144.7356         0.334940   
     24. A(C   0,C   2,C   1)           60.0000         0.383735   
     25. A(C   1,C   2,H   7)          144.7356         0.334940   
     26. A(C   1,C   2,C   3)           60.0000         0.383735   
     27. A(C   0,C   2,H   7)          144.7356         0.334940   
     28. A(C   0,C   2,C   3)           60.0000         0.383735   
     29. A(C   1,C   3,C   2)           60.0000         0.383735   
     30. A(C   0,C   3,C   2)           60.0000         0.383735   
     31. A(C   2,C   3,H   6)          144.7356         0.334940   
     32. A(C   1,C   3,H   6)          144.7356         0.334940   
     33. A(C   0,C   3,H   6)          144.7356         0.334940   
     34. A(C   0,C   3,C   1)           60.0000         0.383735   
     35. D(H   5,C   1,C   0,H   4)     -0.0000         0.015136   
     36. D(H   5,C   1,C   0,C   2)    144.7356         0.015136   
     37. D(H   5,C   1,C   0,C   3)   -144.7356         0.015136   
     38. D(C   2,C   1,C   0,C   3)     70.5288         0.015136   
     39. D(C   3,C   1,C   0,C   2)    -70.5288         0.015136   
     40. D(C   3,C   1,C   0,H   4)    144.7356         0.015136   
     41. D(C   2,C   1,C   0,H   4)   -144.7356         0.015136   
     42. D(H   7,C   2,C   0,C   3)    144.7356         0.015136   
     43. D(H   7,C   2,C   0,H   4)      0.0000         0.015136   
     44. D(H   7,C   2,C   0,C   1)   -144.7356         0.015136   
     45. D(C   1,C   2,C   0,C   3)    -70.5288         0.015136   
     46. D(H   7,C   2,C   1,C   3)   -144.7356         0.015136   
     47. D(C   3,C   2,C   0,C   1)     70.5288         0.015136   
     48. D(C   3,C   2,C   1,C   0)    -70.5288         0.015136   
     49. D(C   0,C   2,C   1,H   5)   -144.7356         0.015136   
     50. D(H   7,C   2,C   1,H   5)     -0.0000         0.015136   
     51. D(C   3,C   2,C   1,H   5)    144.7356         0.015136   
     52. D(H   7,C   2,C   1,C   0)    144.7356         0.015136   
     53. D(C   1,C   2,C   0,H   4)    144.7356         0.015136   
     54. D(C   0,C   2,C   1,C   3)     70.5288         0.015136   
     55. D(C   3,C   2,C   0,H   4)   -144.7356         0.015136   
     56. D(C   0,C   3,C   1,H   5)    144.7356         0.015136   
     57. D(C   0,C   3,C   1,C   2)    -70.5288         0.015136   
     58. D(H   6,C   3,C   0,H   4)      0.0000         0.015136   
     59. D(H   6,C   3,C   0,C   2)   -144.7356         0.015136   
     60. D(H   6,C   3,C   0,C   1)    144.7356         0.015136   
     61. D(C   2,C   3,C   0,H   4)    144.7356         0.015136   
     62. D(C   2,C   3,C   0,C   1)    -70.5288         0.015136   
     63. D(C   1,C   3,C   0,H   4)   -144.7356         0.015136   
     64. D(C   2,C   3,C   1,C   0)     70.5288         0.015136   
     65. D(C   1,C   3,C   0,C   2)     70.5288         0.015136   
     66. D(H   6,C   3,C   2,H   7)      0.0000         0.015136   
     67. D(H   6,C   3,C   2,C   1)   -144.7356         0.015136   
     68. D(H   6,C   3,C   2,C   0)    144.7356         0.015136   
     69. D(C   1,C   3,C   2,H   7)    144.7356         0.015136   
     70. D(C   1,C   3,C   2,C   0)    -70.5288         0.015136   
     71. D(C   0,C   3,C   2,H   7)   -144.7356         0.015136   
     72. D(C   0,C   3,C   2,C   1)     70.5288         0.015136   
     73. D(H   6,C   3,C   1,H   5)      0.0000         0.015136   
     74. D(H   6,C   3,C   1,C   2)    144.7356         0.015136   
     75. D(H   6,C   3,C   1,C   0)   -144.7356         0.015136   
     76. D(C   2,C   3,C   1,H   5)   -144.7356         0.015136   
    -----------------------------------------------------------------

Number of atoms                         .... 8
Number of degrees of freedom            .... 76

         *************************************************************
         *                GEOMETRY OPTIMIZATION CYCLE   1            *
         *************************************************************
---------------------------------
CARTESIAN COORDINATES (ANGSTROEM)
---------------------------------
  C      0.525700   -0.525700   -0.525700
  C     -0.525700   -0.525700    0.525700
  C     -0.525700    0.525700   -0.525700
  C      0.525700    0.525700    0.525700
  H      1.149238   -1.149238   -1.149238
  H     -1.149238   -1.149238    1.149238
  H      1.149238    1.149238    1.149238
  H     -1.149238    1.149238   -1.149238

----------------------------
CARTESIAN COORDINATES (A.U.)
----------------------------
  NO LB      ZA    FRAG     MASS         X           Y           Z
   0 C     6.0000    0    12.011    0.993429   -0.993429   -0.993429
   1 C     6.0000    0    12.011   -0.993429   -0.993429    0.993429
   2 C     6.0000    0    12.011   -0.993429    0.993429   -0.993429
   3 C     6.0000    0    12.011    0.993429    0.993429    0.993429
   4 H     1.0000    0     1.008    2.171746   -2.171746   -2.171746
   5 H     1.0000    0     1.008   -2.171746   -2.171746    2.171746
   6 H     1.0000    0     1.008    2.171746    2.171746    2.171746
   7 H     1.0000    0     1.008   -2.171746    2.171746   -2.171746

--------------------------------
INTERNAL COORDINATES (ANGSTROEM)
--------------------------------
 C      0   0   0     0.000000000000     0.00000000     0.00000000
 C      1   0   0     1.486904652839     0.00000000     0.00000000
 C      1   2   0     1.486904652839    60.00000000     0.00000000
 C      1   2   3     1.486904652839    60.00000000    70.52877937
 H      1   2   3     1.080000000477   144.73561025   215.26438988
 H      2   1   3     1.080000000477   144.73561025   144.73561012
 H      4   1   2     1.079999998745   144.73561032   144.73561032
 H      3   1   2     1.080000000477   144.73561025   215.26438988

---------------------------
INTERNAL COORDINATES (A.U.)
---------------------------
 C      0   0   0     0.000000000000     0.00000000     0.00000000
 C      1   0   0     2.809842581118     0.00000000     0.00000000
 C      1   2   0     2.809842581118    60.00000000     0.00000000
 C      1   2   3     2.809842581118    60.00000000    70.52877937
 H      1   2   3     2.040904225536   144.73561025   215.26438988
 H      2   1   3     2.040904225536   144.73561025   144.73561012
 H      4   1   2     2.040904222263   144.73561032   144.73561032
 H      3   1   2     2.040904225536   144.73561025   215.26438988

---------------------
BASIS SET INFORMATION
---------------------
There are 2 groups of distinct atoms

 Group   1 Type C   : 7s4p1d contracted to 3s2p1d pattern {511/31/1}
 Group   2 Type H   : 4s1p contracted to 2s1p pattern {31/1}

Atom   0C    basis set group =>   1
Atom   1C    basis set group =>   1
Atom   2C    basis set group =>   1
Atom   3C    basis set group =>   1
Atom   4H    basis set group =>   2
Atom   5H    basis set group =>   2
Atom   6H    basis set group =>   2
Atom   7H    basis set group =>   2

-------------------------
BASIS SET IN INPUT FORMAT
-------------------------

 # Basis set for element : H 
 NewGTO H 
 S 3 
   1      13.0107010000      0.0334854848
   2       1.9622572000      0.2347218709
   3       0.4445379600      0.8137702853
 S 1 
   1       0.1219496200      1.0000000000
 P 1 
   1       0.8000000000      1.0000000000
  end;

 # Basis set for element : C 
 NewGTO C 
 S 5 
   1    1238.4016938000      0.0055173650
   2     186.2900499200      0.0410888285
   3      42.2511763460      0.1822538213
   4      11.6765579320      0.4682845944
   5       3.5930506482      0.4457581734
 S 1 
   1       0.4024514736      1.0000000000
 S 1 
   1       0.1309018267      1.0000000000
 P 3 
   1       9.4680970621      0.0568883320
   2       2.0103545142      0.3129405934
   3       0.5477100471      0.7606501651
 P 1 
   1       0.1526861379      1.0000000000
 D 1 
   1       0.8000000000      1.0000000000
  end;

---------------------------------
AUXILIARY/J BASIS SET INFORMATION
---------------------------------
There are 2 groups of distinct atoms

 Group   1 Type C   : 12s5p4d2f1g contracted to 6s4p3d1f1g pattern {711111/2111/211/2/1}
 Group   2 Type H   : 5s2p1d contracted to 3s1p1d pattern {311/2/1}

Atom   0C    basis set group =>   1
Atom   1C    basis set group =>   1
Atom   2C    basis set group =>   1
Atom   3C    basis set group =>   1
Atom   4H    basis set group =>   2
Atom   5H    basis set group =>   2
Atom   6H    basis set group =>   2
Atom   7H    basis set group =>   2

-------------------------------------
AUXILIARY/J BASIS SET IN INPUT FORMAT
-------------------------------------

 # Auxiliary/J basis set for element : H 
 NewAuxJGTO H 
 S 3 
   1      15.6752927000      0.1007184237
   2       3.6063578000      0.3404257499
   3       1.2080016000      0.6491996172
 S 1 
   1       0.4726794000      1.0000000000
 S 1 
   1       0.2018100000      1.0000000000
 P 2 
   1       2.0281365000      0.5596620919
   2       0.5358730000      0.5596620919
 D 1 
   1       2.2165124000      1.0000000000
  end;

 # Auxiliary/J basis set for element : C 
 NewAuxJGTO C 
 S 7 
   1    1861.0916331000      0.0134602335
   2     642.9939764000      0.0299160374
   3     235.1105725000      0.1008649584
   4      90.7028894000      0.2370970548
   5      36.7794552000      0.3924037254
   6      15.6046273000      0.3195862154
   7       6.8907294000      0.0530104441
 S 1 
   1       3.1478850000     -1.0000000000
 S 1 
   1       1.4777287000      1.0000000000
 S 1 
   1       0.7076466000      1.0000000000
 S 1 
   1       0.3430122000      1.0000000000
 S 1 
   1       0.1669453000      1.0000000000
 P 2 
   1      13.5472892000     -0.6769313712
   2       5.4669419000     -0.3779500978
 P 1 
   1       2.1751721000      1.0000000000
 P 1 
   1       0.8582194000      1.0000000000
 P 1 
   1       0.3376720000      1.0000000000
 D 2 
   1       5.9287253000     -0.3533329857
   2       1.9809209000     -0.7456525731
 D 1 
   1       0.8055417000     -1.0000000000
 D 1 
   1       0.3531244000     -1.0000000000
 F 2 
   1       1.6755626000      0.6311076882
   2       0.5997536000      0.4968166032
 G 1 
   1       1.0024600000     -1.0000000000
  end;



           ************************************************************
           *        Program running with 12 parallel MPI-processes    *
           *              working on a common directory               *
           ************************************************************
------------------------------------------------------------------------------
                           ORCA GTO INTEGRAL CALCULATION
                           -- RI-GTO INTEGRALS CHOSEN --
------------------------------------------------------------------------------

                         BASIS SET STATISTICS AND STARTUP INFO

Gaussian basis set:
 # of primitive gaussian shells          ...   68
 # of primitive gaussian functions       ...  124
 # of contracted shells                  ...   36
 # of contracted basis functions         ...   76
 Highest angular momentum                ...    2
 Maximum contraction depth               ...    5
Auxiliary gaussian basis set:
 # of primitive gaussian shells          ...  128
 # of primitive gaussian functions       ...  344
 # of contracted shells                  ...   80
 # of contracted aux-basis functions     ...  240
 Highest angular momentum                ...    4
 Maximum contraction depth               ...    7
Ratio of auxiliary to basis functions    ...  3.16
Integral package used                  ... LIBINT
 One Electron integrals                  ... done
 Ordering auxiliary basis shells         ... done
 Integral threshhold             Thresh  ...  2.500e-11
 Primitive cut-off               TCut    ...  2.500e-12
 Pre-screening matrix                    ... done
 Shell pair data                         ... 
 Ordering of the shell pairs             ... done (   0.000 sec) 666 of 666 pairs
 Determination of significant pairs      ... done (   0.000 sec)
 Creation of shell pair data             ... done (   0.000 sec)
 Storage of shell pair data              ... done (   0.026 sec)
 Shell pair data done in (   0.027 sec)
 Computing two index integrals           ... done
 Cholesky decomposition of the V-matrix  ... done


Timings:
 Total evaluation time                   ...   0.228 sec (  0.004 min)
 One electron matrix time                ...   0.017 sec (  0.000 min) =  7.6%
 Schwartz matrix evaluation time         ...   0.143 sec (  0.002 min) = 62.6%
 Two index repulsion integral time       ...   0.012 sec (  0.000 min) =  5.1%
 Cholesky decomposition of V             ...   0.007 sec (  0.000 min) =  3.0%
 Three index repulsion integral time     ...   0.000 sec (  0.000 min) =  0.0%



           ************************************************************
           *        Program running with 12 parallel MPI-processes    *
           *              working on a common directory               *
           ************************************************************
-------------------------------------------------------------------------------
                                 ORCA SCF
-------------------------------------------------------------------------------

------------
SCF SETTINGS
------------
Hamiltonian:
 Density Functional     Method          .... DFT(GTOs)
 Exchange Functional    Exchange        .... PBE
   PBE kappa parameter   XKappa         ....  1.245000
   PBE mue parameter    XMuePBE         ....  0.219520
 Correlation Functional Correlation     .... PBE
   PBE beta parameter  CBetaPBE         ....  0.066725
 LDA part of GGA corr.  LDAOpt          .... PW91-LDA
 Gradients option       PostSCFGGA      .... off
   Density functional embedding theory  .... OFF
   NL short-range parameter             ....  3.700000
 RI-approximation to the Coulomb term is turned on
   Number of auxiliary basis functions  .... 240


General Settings:
 Integral files         IntName         .... tetrahedrane
 Hartree-Fock type      HFTyp           .... RHF
 Total Charge           Charge          ....    0
 Multiplicity           Mult            ....    1
 Number of Electrons    NEL             ....   28
 Basis Dimension        Dim             ....   76
 Nuclear Repulsion      ENuc            ....    105.1639461579 Eh

Convergence Acceleration:
 DIIS                   CNVDIIS         .... on
   Start iteration      DIISMaxIt       ....    12
   Startup error        DIISStart       ....  0.200000
   # of expansion vecs  DIISMaxEq       ....     5
   Bias factor          DIISBfac        ....   1.050
   Max. coefficient     DIISMaxC        ....  10.000
 Newton-Raphson         CNVNR           .... off
 SOSCF                  CNVSOSCF        .... on
   Start iteration      SOSCFMaxIt      ....   150
   Startup grad/error   SOSCFStart      ....  0.003300
 Level Shifting         CNVShift        .... on
   Level shift para.    LevelShift      ....    0.2500
   Turn off err/grad.   ShiftErr        ....    0.0010
 Zerner damping         CNVZerner       .... off
 Static damping         CNVDamp         .... on
   Fraction old density DampFac         ....    0.7000
   Max. Damping (<1)    DampMax         ....    0.9800
   Min. Damping (>=0)   DampMin         ....    0.0000
   Turn off err/grad.   DampErr         ....    0.1000
 Fernandez-Rico         CNVRico         .... off

SCF Procedure:
 Maximum # iterations   MaxIter         ....   125
 SCF integral mode      SCFMode         .... Direct
   Integral package                     .... LIBINT
 Reset frequency        DirectResetFreq ....    20
 Integral Threshold     Thresh          ....  2.500e-11 Eh
 Primitive CutOff       TCut            ....  2.500e-12 Eh

Convergence Tolerance:
 Convergence Check Mode ConvCheckMode   .... Total+1el-Energy
 Convergence forced     ConvForced      .... 0
 Energy Change          TolE            ....  1.000e-08 Eh
 1-El. energy change                    ....  1.000e-05 Eh
 Orbital Gradient       TolG            ....  1.000e-05
 Orbital Rotation angle TolX            ....  1.000e-05
 DIIS Error             TolErr          ....  5.000e-07


Diagonalization of the overlap matrix:
Smallest eigenvalue                        ... 1.607e-03
Time for diagonalization                   ...    0.002 sec
Threshold for overlap eigenvalues          ... 1.000e-08
Number of eigenvalues below threshold      ... 0
Time for construction of square roots      ...    0.013 sec
Total time needed                          ...    0.015 sec

-------------------
DFT GRID GENERATION
-------------------

General Integration Accuracy     IntAcc      ...  4.670
Radial Grid Type                 RadialGrid  ... Gauss-Chebyshev
Angular Grid (max. acc.)         AngularGrid ... Lebedev-302
Angular grid pruning method      GridPruning ... 3 (G Style)
Weight generation scheme         WeightScheme... Becke
Basis function cutoff            BFCut       ...    1.0000e-11
Integration weight cutoff        WCut        ...    1.0000e-14
Grids for H and He will be reduced by one unit

# of grid points (after initial pruning)     ...  38424 (   0.0 sec)
# of grid points (after weights+screening)   ...  36604 (   0.0 sec)
nearest neighbour list constructed           ...    0.0 sec
Grid point re-assignment to atoms done       ...    0.0 sec
Grid point division into batches done        ...    0.2 sec
Reduced shell lists constructed in    0.2 sec

Total number of grid points                  ...    36604
Total number of batches                      ...      576
Average number of points per batch           ...       63
Average number of grid points per atom       ...     4576
Average number of shells per batch           ...    33.96 (94.33%)
Average number of basis functions per batch  ...    72.90 (95.92%)
Average number of large shells per batch     ...    31.45 (92.61%)
Average number of large basis fcns per batch ...    68.10 (93.42%)
Maximum spatial batch extension              ...   2.93,  3.44,  3.57 au
Average spatial batch extension              ...   0.11,  0.11,  0.12 au

Time for grid setup =    0.308 sec

------------------------------
INITIAL GUESS: MODEL POTENTIAL
------------------------------
Loading Hartree-Fock densities                     ... done
Calculating cut-offs                               ... done
Setting up the integral package                    ... done
Initializing the effective Hamiltonian             ... done
Starting the Coulomb interaction                   ... done (   0.0 sec)
Reading the grid                                   ... done
Mapping shells                                     ... done
Starting the XC term evaluation                    ... done (   0.1 sec)
  promolecular density results
     # of electrons  =     27.998040878
     EX              =    -21.804224362
     EC              =     -0.910813061
     EX+EC           =    -22.715037423
Transforming the Hamiltonian                       ... done (   0.0 sec)
Diagonalizing the Hamiltonian                      ... done (   0.0 sec)
Back transforming the eigenvectors                 ... done (   0.0 sec)
Now organizing SCF variables                       ... done
                      ------------------
                      INITIAL GUESS DONE (   0.5 sec)
                      ------------------
----------------------
INITIAL GUESS ORBITALS
----------------------
                      0         1         2         3         4         5   
                 -10.08328 -10.08316 -10.08316 -10.08316  -1.07382  -0.65020
                   2.00000   2.00000   2.00000   2.00000   2.00000   2.00000
                  --------  --------  --------  --------  --------  --------
  0C   1s         0.494354 -0.283793 -0.163668  0.789724  0.135483  0.074219
  0C   2s         0.025615 -0.015200 -0.008766  0.042299 -0.283499 -0.161817
  0C   3s        -0.005010  0.017381  0.010024 -0.048366 -0.026204 -0.143085
  0C   1pz       -0.000264 -0.001140  0.000932  0.001378 -0.098029  0.084744
  0C   1px        0.000264 -0.000811  0.000374 -0.001809  0.098029  0.123527
  0C   1py       -0.000264 -0.001138 -0.001405  0.000895 -0.098029  0.087027
  0C   2pz       -0.004358  0.004501 -0.002220 -0.007090  0.002812 -0.029242
  0C   2px        0.004358  0.001409 -0.001736  0.008394 -0.002812  0.040123
  0C   2py       -0.004358  0.004494  0.004860 -0.005625  0.002812 -0.029123
  0C   1dz2      -0.000000 -0.000688  0.001283  0.000019 -0.000000  0.007841
  0C   1dxz      -0.000300  0.000314 -0.000603 -0.003256  0.013211  0.006707
  0C   1dyz       0.000300 -0.002357 -0.000478  0.002298 -0.013211  0.007756
  0C   1dx2y2     0.000000  0.001189  0.000629  0.000558  0.000000 -0.013882
  0C   1dxy      -0.000300  0.000312  0.001847 -0.002749  0.013211  0.006550
  1C   1s         0.494354 -0.284986 -0.602264 -0.535771  0.135483  0.071141
  1C   2s         0.025615 -0.015264 -0.032258 -0.028697 -0.283499 -0.155105
  1C   3s        -0.005010  0.017454  0.036885  0.032813 -0.026204 -0.137150
  1C   1pz        0.000264 -0.000808  0.001379  0.001230  0.098029  0.124953
  1C   1px       -0.000264 -0.001142 -0.000073 -0.001660 -0.098029  0.083318
  1C   1py       -0.000264 -0.001138 -0.001660  0.000121 -0.098029  0.087878
  1C   2pz        0.004358  0.001396 -0.006401 -0.005704 -0.002812  0.038801
  1C   2px       -0.004358  0.004513  0.002445  0.007008  0.002812 -0.027920
  1C   2py       -0.004358  0.004501  0.007253  0.001609  0.002812 -0.027682
  1C   1dz2       0.000000  0.001373 -0.000361 -0.000325  0.000000 -0.016030
  1C   1dxz      -0.000300  0.000320  0.001458  0.002973  0.013211  0.006735
  1C   1dyz      -0.000300  0.000316  0.003122  0.001105  0.013211  0.006422
  1C   1dx2y2     0.000000 -0.000003  0.000969 -0.001087  0.000000 -0.000301
  1C   1dxy       0.000300 -0.002361 -0.001753 -0.001556 -0.013211  0.007884
  2C   1s         0.494354 -0.286200  0.764946 -0.252857  0.135483  0.068056
  2C   2s         0.025615 -0.015329  0.040972 -0.013544 -0.283499 -0.148379
  2C   3s        -0.005010  0.017528 -0.046848  0.015486 -0.026204 -0.131202
  2C   1pz       -0.000264 -0.001141  0.001474  0.000770 -0.098029  0.086449
  2C   1px       -0.000264 -0.001143  0.000724 -0.001495 -0.098029  0.084171
  2C   1py        0.000264 -0.000805 -0.001755  0.000582  0.098029  0.126383
  2C   2pz       -0.004358  0.004514 -0.007289 -0.001400  0.002812 -0.026357
  2C   2px       -0.004358  0.004520 -0.005018  0.005464  0.002812 -0.026476
  2C   2py        0.004358  0.001383  0.008141 -0.002695 -0.002812  0.037476
  2C   1dz2      -0.000000 -0.000685  0.000165  0.001274 -0.000000  0.008188
  2C   1dxz       0.000300 -0.002364  0.002223 -0.000733 -0.013211  0.008013
  2C   1dyz      -0.000300  0.000321 -0.003304 -0.000225  0.013211  0.006450
  2C   1dx2y2    -0.000000 -0.001189 -0.000629 -0.000558 -0.000000  0.013882
  2C   1dxy      -0.000300  0.000324 -0.002518  0.002150  0.013211  0.006606
  3C   1s         0.494355  0.854978  0.000986 -0.001096  0.135483 -0.213416
  3C   2s         0.025615  0.045794  0.000053 -0.000059 -0.283499  0.465302
  3C   3s        -0.005010 -0.052362 -0.000060  0.000067 -0.026204  0.411437
  3C   1pz        0.000264 -0.001473  0.001027  0.000918  0.098029  0.046240
  3C   1px        0.000264 -0.001475  0.000277 -0.001347  0.098029  0.043962
  3C   1py        0.000264 -0.001471 -0.001310  0.000435  0.098029  0.048522
  3C   2pz        0.004358  0.007618 -0.003108 -0.002786 -0.002812 -0.094400
  3C   2px        0.004358  0.007624 -0.000837  0.004078 -0.002812 -0.094519
  3C   2py        0.004358  0.007612  0.003972 -0.001321 -0.002812 -0.094280
  3C   1dz2       0.000000  0.000000 -0.001087 -0.000969  0.000000  0.000000
  3C   1dxz       0.000300  0.002999 -0.001368  0.000450 -0.013211  0.005429
  3C   1dyz       0.000300  0.002995  0.000296 -0.001418 -0.013211  0.005115
  3C   1dx2y2    -0.000000  0.000003 -0.000969  0.001087 -0.000000  0.000301
  3C   1dxy       0.000300  0.002997  0.001082  0.000957 -0.013211  0.005272
  4H   1s        -0.004429  0.002076  0.001197 -0.005778 -0.008974 -0.081911
  4H   2s        -0.001483 -0.002031 -0.001171  0.005651  0.007651 -0.022503
  4H   1pz       -0.000865  0.000440  0.000862 -0.001910 -0.000588 -0.002000
  4H   1px        0.000865 -0.001186 -0.000362  0.001745  0.000588  0.007150
  4H   1py       -0.000865  0.000441 -0.000032 -0.002095 -0.000588 -0.001943
  5H   1s        -0.004429  0.002085  0.004406  0.003920 -0.008974 -0.078513
  5H   2s        -0.001483 -0.002039 -0.004310 -0.003834  0.007651 -0.021570
  5H   1pz        0.000865 -0.001189 -0.001331 -0.001183  0.000588  0.007015
  5H   1px       -0.000865  0.000442  0.001831  0.001018 -0.000588 -0.001865
  5H   1py       -0.000865  0.000444  0.001223  0.001700 -0.000588 -0.001752
  6H   1s        -0.004429 -0.006255 -0.000007  0.000008 -0.008974  0.235532
  6H   2s        -0.001483  0.006118  0.000007 -0.000008  0.007651  0.064707
  6H   1pz        0.000865  0.002075  0.000396  0.000348  0.000588 -0.010633
  6H   1px        0.000865  0.002075  0.000109 -0.000519  0.000588 -0.010689
  6H   1py        0.000865  0.002076 -0.000498  0.000163  0.000588 -0.010576
  7H   1s        -0.004429  0.002094 -0.005597  0.001850 -0.008974 -0.075108
  7H   2s        -0.001483 -0.002048  0.005474 -0.001809  0.007651 -0.020634
  7H   1pz       -0.000865  0.000447 -0.001797  0.001075 -0.000588 -0.001618
  7H   1px       -0.000865  0.000446 -0.002084  0.000208 -0.000588 -0.001674
  7H   1py        0.000865 -0.001192  0.001689 -0.000558  0.000588  0.006880
                      6         7         8         9        10        11   
                  -0.65020  -0.65020  -0.59270  -0.47843  -0.47843  -0.47843
                   2.00000   2.00000   2.00000   2.00000   2.00000   2.00000
                  --------  --------  --------  --------  --------  --------
  0C   1s         0.071919  0.186761  0.056665 -0.003685  0.005237  0.009380
  0C   2s        -0.156801 -0.407188 -0.071222 -0.001933  0.002748  0.004922
  0C   3s        -0.138649 -0.360050 -0.070230  0.028932 -0.041120 -0.073651
  0C   1pz       -0.114560  0.063295  0.141991  0.039826  0.289564  0.099481
  0C   1px       -0.035500 -0.088277 -0.141991  0.285975 -0.051897 -0.104189
  0C   1py        0.125809 -0.030174  0.141991  0.048799 -0.060977  0.298715
  0C   2pz       -0.038611 -0.081417  0.000747  0.028139  0.086077  0.001521
  0C   2px        0.030771  0.080112 -0.000747  0.090513  0.000478 -0.003235
  0C   2py       -0.026053 -0.086300  0.000747  0.031406 -0.041585  0.074079
  0C   1dz2      -0.014862  0.002607  0.000000  0.011808  0.021922 -0.007601
  0C   1dxz       0.009348 -0.000239 -0.007401  0.001390 -0.001746  0.008043
  0C   1dyz      -0.003145 -0.007898  0.007401  0.007777 -0.001345 -0.002716
  0C   1dx2y2    -0.005954  0.007810 -0.000000 -0.021610  0.007286 -0.012557
  0C   1dxy      -0.007163  0.006182 -0.007401  0.001144  0.007853  0.002587
  1C   1s         0.124994 -0.157721  0.056665 -0.004041  0.005358 -0.009163
  1C   2s        -0.272519  0.343874 -0.071222 -0.002120  0.002811 -0.004807
  1C   3s        -0.240971  0.304065 -0.070230  0.031729 -0.042070  0.071943
  1C   1pz       -0.060091  0.071328 -0.141991  0.289752 -0.053180  0.092444
  1C   1px       -0.089970 -0.096310  0.141991  0.036049  0.290847 -0.097152
  1C   1py        0.111127  0.065116  0.141991  0.037275 -0.057064 -0.301138
  1C   2pz        0.053564 -0.067823 -0.000747  0.090571  0.000458 -0.000237
  1C   2px       -0.061403  0.066518  0.000747  0.028081  0.086096 -0.001477
  1C   2py       -0.050897  0.074952  0.000747  0.028528 -0.040608 -0.075766
  1C   1dz2       0.003769 -0.004243 -0.000000 -0.024330 -0.004749  0.007953
  1C   1dxz       0.008861  0.002924 -0.007401  0.001080 -0.001641 -0.008112
  1C   1dyz      -0.004953 -0.008164 -0.007401  0.001046  0.007886 -0.002527
  1C   1dx2y2    -0.013259 -0.010643  0.000000 -0.000079  0.022458  0.013168
  1C   1dxy      -0.005355  0.006448  0.007401  0.007875 -0.001378  0.002398
  2C   1s        -0.199857 -0.031401  0.056665 -0.003628 -0.010763 -0.000001
  2C   2s         0.435741  0.068462 -0.071222 -0.001904 -0.005647 -0.000000
  2C   3s         0.385298  0.060537 -0.070230  0.028489  0.084503  0.000004
  2C   1pz       -0.039382  0.123643  0.141991  0.041651 -0.228007 -0.203981
  2C   1px       -0.000110 -0.131252  0.141991  0.049397 -0.230637  0.199240
  2C   1py        0.090418  0.012802 -0.141991  0.285376  0.117763 -0.004714
  2C   2pz        0.088607  0.020704  0.000747  0.028594 -0.043214 -0.074285
  2C   2px        0.090659  0.007388  0.000747  0.031415 -0.044172  0.072562
  2C   2py       -0.085941 -0.013576 -0.000747  0.090504  0.003065 -0.001719
  2C   1dz2       0.000448  0.014897  0.000000  0.011899 -0.004011 -0.022806
  2C   1dxz       0.008173  0.001188  0.007401  0.007762  0.003068 -0.000129
  2C   1dyz      -0.001970 -0.009324 -0.007401  0.001406 -0.006158  0.005456
  2C   1dx2y2     0.005954 -0.007810  0.000000  0.021610 -0.007286  0.012557
  2C   1dxy      -0.004668  0.008185 -0.007401  0.001194 -0.006086 -0.005586
  3C   1s         0.002945  0.002361  0.056665  0.011355  0.000167 -0.000217
  3C   2s        -0.006421 -0.005148 -0.071222  0.005957  0.000088 -0.000114
  3C   3s        -0.005677 -0.004552 -0.070230 -0.089150 -0.001313  0.001704
  3C   1pz       -0.093852  0.115610 -0.141991 -0.208275  0.114738 -0.196944
  3C   1px       -0.054579 -0.139285 -0.141991 -0.200529  0.112107  0.206277
  3C   1py        0.146517  0.022141 -0.141991 -0.199302 -0.235804  0.002290
  3C   2pz       -0.003567  0.007111 -0.000747 -0.033838  0.042405 -0.072527
  3C   2px       -0.001516 -0.006206 -0.000747 -0.031017  0.041447  0.074320
  3C   2py        0.008991  0.002228 -0.000747 -0.030570 -0.085257  0.000031
  3C   1dz2       0.010645 -0.013261 -0.000000  0.000623 -0.013162  0.022453
  3C   1dxz       0.010035  0.001498  0.007401 -0.005292 -0.006455  0.000060
  3C   1dyz      -0.003778 -0.009591  0.007401 -0.005325  0.003072  0.005645
  3C   1dx2y2     0.013259  0.010643 -0.000000  0.000079 -0.022458 -0.013168
  3C   1dxy      -0.006476  0.007918  0.007401 -0.005537  0.003144 -0.005396
  4H   1s        -0.079371 -0.206115 -0.198259  0.096482 -0.137125 -0.245609
  4H   2s        -0.021805 -0.056625 -0.050132  0.026206 -0.037245 -0.066711
  4H   1pz       -0.006801 -0.008740 -0.010872  0.005540 -0.000688 -0.009933
  4H   1px        0.003091  0.008122  0.010872  0.001222  0.005621  0.009835
  4H   1py       -0.000858 -0.011051 -0.010872  0.005726 -0.007964 -0.005798
  5H   1s        -0.137947  0.174066 -0.198259  0.105809 -0.140293  0.239913
  5H   2s        -0.037898  0.047821 -0.050132  0.028739 -0.038105  0.065164
  5H   1pz        0.005411 -0.006939  0.010872  0.000845  0.005749 -0.009801
  5H   1px       -0.009122  0.006321 -0.010872  0.005917 -0.000816  0.009703
  5H   1py       -0.004149  0.010313 -0.010872  0.005942 -0.008038  0.005469
  6H   1s        -0.003250 -0.002606 -0.198259 -0.297295 -0.004380  0.005683
  6H   2s        -0.000893 -0.000716 -0.050132 -0.080750 -0.001190  0.001543
  6H   1pz       -0.002158  0.002989  0.010872  0.010200  0.002595 -0.004365
  6H   1px       -0.001187 -0.003314  0.010872  0.010360  0.002541  0.004004
  6H   1py        0.003785  0.000678  0.010872  0.010386 -0.004680 -0.000230
  7H   1s         0.220568  0.034655 -0.198259  0.095005  0.281798  0.000013
  7H   2s         0.060596  0.009521 -0.050132  0.025805  0.076540  0.000004
  7H   1pz        0.010054  0.004790 -0.010872  0.005505  0.009033 -0.004233
  7H   1px        0.011025 -0.001513 -0.010872  0.005666  0.008979  0.004136
  7H   1py       -0.008792 -0.001416  0.010872  0.001282 -0.011321 -0.000098
                     12        13        14        15        16        17   
                  -0.32305  -0.32305  -0.00098  -0.00098  -0.00098   0.00530
                   2.00000   2.00000   0.00000   0.00000   0.00000   0.00000
                  --------  --------  --------  --------  --------  --------
  0C   1s         0.000000  0.000000  0.000000 -0.000000  0.000000  0.037897
  0C   2s        -0.000000 -0.000000 -0.000000  0.000000 -0.000000 -0.011823
  0C   3s        -0.000000  0.000000 -0.000000  0.000000 -0.000000 -0.697928
  0C   1pz       -0.287801 -0.043109 -0.097791  0.202387 -0.315423  0.104180
  0C   1px       -0.106567 -0.270798 -0.331661  0.199928 -0.006693 -0.104180
  0C   1py        0.181234 -0.227689 -0.233870 -0.002459  0.308730  0.104180
  0C   2pz       -0.156191 -0.023395 -0.162867  0.337067 -0.525323  0.144142
  0C   2px       -0.057835 -0.146963 -0.552368  0.332972 -0.011147 -0.144142
  0C   2py        0.098357 -0.123568 -0.389500 -0.004095  0.514177  0.144142
  0C   1dz2       0.003737  0.000560  0.003478 -0.007198  0.011218  0.000000
  0C   1dxz       0.010795 -0.013561  0.012035  0.000127 -0.015887 -0.029968
  0C   1dyz      -0.006347 -0.016129  0.017067 -0.010288  0.000344  0.029968
  0C   1dx2y2     0.000560 -0.003737 -0.011612  0.004055  0.006202 -0.000000
  0C   1dxy      -0.017142 -0.002568  0.005032 -0.010415  0.016231 -0.029968
  1C   1s        -0.000000 -0.000000 -0.000000 -0.000000 -0.000000  0.037897
  1C   2s         0.000000  0.000000  0.000000  0.000000  0.000000 -0.011823
  1C   3s         0.000000  0.000000  0.000000  0.000000  0.000000 -0.697928
  1C   1pz        0.287801  0.043109  0.338718  0.187233  0.015122 -0.104180
  1C   1px        0.106567  0.270798  0.104849  0.184775  0.323852  0.104180
  1C   1py        0.181234 -0.227689  0.233870  0.002459 -0.308730  0.104180
  1C   2pz        0.156191  0.023395  0.564121  0.311830  0.025186 -0.144142
  1C   2px        0.057835  0.146963  0.174621  0.307735  0.539362  0.144142
  1C   2py        0.098357 -0.123568  0.389500  0.004095 -0.514177  0.144142
  1C   1dz2       0.003737  0.000560  0.012047  0.006659  0.000538 -0.000000
  1C   1dxz       0.010795 -0.013561 -0.012035 -0.000127  0.015887 -0.029968
  1C   1dyz       0.006347  0.016129 -0.005395 -0.009508 -0.016665 -0.029968
  1C   1dx2y2     0.000560 -0.003737  0.002649 -0.003744 -0.012989 -0.000000
  1C   1dxy       0.017142  0.002568 -0.017430 -0.009635 -0.000778  0.029968
  2C   1s         0.000000 -0.000000  0.000000  0.000000  0.000000  0.037897
  2C   2s        -0.000000  0.000000 -0.000000 -0.000000 -0.000000 -0.011823
  2C   3s         0.000000 -0.000000 -0.000000 -0.000000  0.000000 -0.697928
  2C   1pz       -0.287801 -0.043109  0.097791 -0.202387  0.315423  0.104180
  2C   1px        0.106567  0.270798 -0.104849 -0.184775 -0.323852  0.104180
  2C   1py       -0.181234  0.227689 -0.007057 -0.387162 -0.008429 -0.104180
  2C   2pz       -0.156191 -0.023395  0.162867 -0.337067  0.525323  0.144142
  2C   2px        0.057835  0.146963 -0.174621 -0.307735 -0.539362  0.144142
  2C   2py       -0.098357  0.123568 -0.011754 -0.644802 -0.014039 -0.144142
  2C   1dz2       0.003737  0.000560 -0.003478  0.007198 -0.011218  0.000000
  2C   1dxz      -0.010795  0.013561  0.000363  0.019923  0.000434  0.029968
  2C   1dyz       0.006347  0.016129  0.005395  0.009508  0.016665 -0.029968
  2C   1dx2y2     0.000560 -0.003737  0.002298  0.011744  0.006823  0.000000
  2C   1dxy      -0.017142 -0.002568 -0.005032  0.010415 -0.016231 -0.029968
  3C   1s        -0.000000 -0.000000  0.000000 -0.000000 -0.000000  0.037897
  3C   2s        -0.000000  0.000000  0.000000  0.000000  0.000000 -0.011823
  3C   3s         0.000000 -0.000000 -0.000000  0.000000  0.000000 -0.697928
  3C   1pz        0.287801  0.043109 -0.338718 -0.187233 -0.015122 -0.104180
  3C   1px       -0.106567 -0.270798  0.331661 -0.199928  0.006693 -0.104180
  3C   1py       -0.181234  0.227689  0.007057  0.387162  0.008429 -0.104180
  3C   2pz        0.156191  0.023395 -0.564121 -0.311830 -0.025186 -0.144142
  3C   2px       -0.057835 -0.146963  0.552368 -0.332972  0.011147 -0.144142
  3C   2py       -0.098357  0.123568  0.011754  0.644802  0.014039 -0.144142
  3C   1dz2       0.003737  0.000560 -0.012047 -0.006659 -0.000538  0.000000
  3C   1dxz      -0.010795  0.013561 -0.000363 -0.019923 -0.000434  0.029968
  3C   1dyz      -0.006347 -0.016129 -0.017067  0.010288 -0.000344  0.029968
  3C   1dx2y2     0.000560 -0.003737  0.006665 -0.012055 -0.000036  0.000000
  3C   1dxy       0.017142  0.002568  0.017430  0.009635  0.000778  0.029968
  4H   1s        -0.000000 -0.000000  0.000000 -0.000000 -0.000000  0.199370
  4H   2s        -0.000000 -0.000000  0.000000 -0.000000 -0.000000  0.836079
  4H   1pz       -0.009104 -0.001364 -0.006805  0.014084 -0.021951 -0.012448
  4H   1px       -0.003371 -0.008566 -0.023081  0.013913 -0.000466  0.012448
  4H   1py        0.005733 -0.007203 -0.016275 -0.000171  0.021485 -0.012448
  5H   1s         0.000000  0.000000 -0.000000 -0.000000 -0.000000  0.199370
  5H   2s         0.000000 -0.000000 -0.000000 -0.000000 -0.000000  0.836079
  5H   1pz        0.009104  0.001364  0.023572  0.013030  0.001052  0.012448
  5H   1px        0.003371  0.008566  0.007297  0.012859  0.022537 -0.012448
  5H   1py        0.005733 -0.007203  0.016275  0.000171 -0.021485 -0.012448
  6H   1s         0.000000 -0.000000  0.000000 -0.000000 -0.000000  0.199370
  6H   2s        -0.000000 -0.000000  0.000000 -0.000000 -0.000000  0.836079
  6H   1pz        0.009104  0.001364 -0.023572 -0.013030 -0.001052  0.012448
  6H   1px       -0.003371 -0.008566  0.023081 -0.013913  0.000466  0.012448
  6H   1py       -0.005733  0.007203  0.000491  0.026943  0.000587  0.012448
  7H   1s        -0.000000  0.000000  0.000000  0.000000  0.000000  0.199370
  7H   2s        -0.000000  0.000000  0.000000  0.000000  0.000000  0.836079
  7H   1pz       -0.009104 -0.001364  0.006805 -0.014084  0.021951 -0.012448
  7H   1px        0.003371  0.008566 -0.007297 -0.012859 -0.022537 -0.012448
  7H   1py       -0.005733  0.007203 -0.000491 -0.026943 -0.000587  0.012448
                     18        19        20        21        22        23   
                   0.01635   0.01635   0.01635   0.12254   0.12254   0.12254
                   0.00000   0.00000   0.00000   0.00000   0.00000   0.00000
                  --------  --------  --------  --------  --------  --------
  0C   1s        -0.035877  0.185102  0.070493  0.041884 -0.071081  0.006408
  0C   2s         0.093747 -0.483670 -0.184198 -0.092017  0.156159 -0.014078
  0C   3s         0.433099 -2.234487 -0.850970 -1.738157  2.949782 -0.265922
  0C   1pz        0.039039 -0.040163  0.080337 -0.122442  0.229313 -0.012339
  0C   1px       -0.060851 -0.022589  0.073335  0.129901 -0.223015  0.033452
  0C   1py       -0.091466 -0.025892 -0.023555 -0.142300  0.217410 -0.014586
  0C   2pz        0.149857 -0.204032  0.259823 -0.363583  1.774443  0.288248
  0C   2px       -0.226839 -0.017443  0.282548  0.764745 -1.435691  0.847280
  0C   2py       -0.310746 -0.153665 -0.106855 -1.431585  1.134228  0.167389
  0C   1dz2      -0.002362  0.001674 -0.005597 -0.015144 -0.010091 -0.012950
  0C   1dxz       0.025134 -0.002511  0.002542  0.025316  0.004976 -0.010428
  0C   1dyz       0.013776  0.014896 -0.015259 -0.000636  0.006181 -0.027125
  0C   1dx2y2    -0.005733 -0.001825  0.001874 -0.011905 -0.005382  0.018115
  0C   1dxy      -0.008204  0.001134 -0.023998 -0.014212 -0.018719 -0.014901
  1C   1s         0.197058 -0.039311  0.011917  0.048502  0.057599 -0.034318
  1C   2s        -0.514911  0.102720 -0.031140 -0.106556 -0.126541  0.075394
  1C   3s        -2.378815  0.474551 -0.143862 -2.012793 -2.390304  1.424161
  1C   1pz       -0.003072 -0.078254  0.058806  0.151066  0.188518 -0.096794
  1C   1px       -0.018740  0.015502  0.094867 -0.143607 -0.182219  0.117907
  1C   1py       -0.030607 -0.084524 -0.038859 -0.162325 -0.171973  0.108650
  1C   2pz        0.055461 -0.289415  0.211559  0.919993  1.582989 -0.108101
  1C   2px       -0.132443  0.067940  0.330812 -0.518831 -1.244237  1.243630
  1C   2py       -0.174327 -0.285093 -0.141160 -1.525565 -0.693150  0.745736
  1C   1dz2      -0.001206 -0.004901  0.003773 -0.002107  0.012664  0.018277
  1C   1dxz      -0.001897  0.023531  0.009339  0.024423 -0.012395 -0.004930
  1C   1dyz      -0.004928 -0.002022 -0.024822 -0.012837  0.008001 -0.023358
  1C   1dx2y2    -0.000447 -0.003765 -0.005033 -0.017974  0.009839 -0.008889
  1C   1dxy       0.010500  0.018052 -0.014435 -0.002010 -0.020539 -0.018669
  2C   1s        -0.059177 -0.011292 -0.192067 -0.066859 -0.011555 -0.047373
  2C   2s         0.154630  0.029505  0.501869  0.146885  0.025384  0.104074
  2C   3s         0.714369  0.136309  2.318567  2.774592  0.479499  1.965921
  2C   1pz        0.032952 -0.091475  0.011738  0.206614  0.049188  0.150400
  2C   1px       -0.085686  0.022823  0.041572  0.205475  0.027038  0.157411
  2C   1py       -0.066631 -0.071303  0.008208 -0.217873 -0.032643 -0.138545
  2C   2pz        0.136211 -0.319050  0.106054  1.180680  0.929112  1.051985
  2C   2px       -0.282508  0.084350  0.211348  1.119413 -0.262190  1.429020
  2C   2py       -0.255077 -0.255457 -0.035655 -1.786253 -0.039272 -0.414351
  2C   1dz2      -0.001846  0.006021  0.000215  0.005611 -0.021452 -0.002686
  2C   1dxz       0.014104  0.017658 -0.011566  0.021944 -0.006179 -0.015958
  2C   1dyz       0.024807 -0.005274 -0.001151  0.002736  0.017337 -0.021595
  2C   1dx2y2     0.005733  0.001825 -0.001874  0.011905  0.005382 -0.018115
  2C   1dxy      -0.005500  0.023925  0.006471  0.000468 -0.026754 -0.007641
  3C   1s        -0.102003 -0.134499  0.109656 -0.023527  0.025036  0.075283
  3C   2s         0.266533  0.351445 -0.286532  0.051688 -0.055003 -0.165391
  3C   3s         1.231347  1.623627 -1.323736  0.976359 -1.038978 -3.124159
  3C   1pz        0.075063 -0.053384  0.033270 -0.066894  0.089983  0.234855
  3C   1px       -0.043574  0.060913  0.063103 -0.068033  0.067833  0.241866
  3C   1py       -0.055442 -0.039113 -0.070623 -0.086752  0.078080  0.232608
  3C   2pz        0.230607 -0.233668  0.154318 -0.102895  1.120565  1.448335
  3C   2px       -0.188112  0.169732  0.259612 -0.164163 -0.070736  1.825370
  3C   2py       -0.229996 -0.183300 -0.212360 -1.170897  0.480351  1.327475
  3C   1dz2       0.005414 -0.002794  0.001609  0.011640  0.018879 -0.002641
  3C   1dxz       0.009134  0.003361  0.023447  0.027794 -0.001240  0.000600
  3C   1dyz       0.006103 -0.022192 -0.010714 -0.009466  0.019157 -0.017828
  3C   1dx2y2     0.000447  0.003765  0.005033  0.017974 -0.009839  0.008889
  3C   1dxy      -0.024204  0.007006 -0.003093 -0.011733 -0.024934 -0.003873
  4H   1s        -0.038474  0.198497  0.075595 -0.006368  0.010806 -0.000974
  4H   2s        -0.225691  1.164406  0.443446 -0.849306  1.441336 -0.129936
  4H   1pz        0.005631 -0.011055  0.006464  0.015360 -0.006071  0.008291
  4H   1px       -0.008065  0.004051  0.010688 -0.008430  0.011924  0.011327
  4H   1py       -0.008935 -0.009462 -0.005132 -0.003091 -0.017132  0.006203
  5H   1s         0.211318 -0.042156  0.012780 -0.007374 -0.008757  0.005217
  5H   2s         1.239616 -0.247292  0.074967 -0.983500 -1.167961  0.695880
  5H   1pz        0.006654 -0.010130  0.006986 -0.009167 -0.002413  0.015865
  5H   1px       -0.009088  0.003126  0.010165  0.016098  0.008265  0.003754
  5H   1py       -0.010412 -0.008038 -0.004760 -0.001295  0.017787 -0.004848
  6H   1s        -0.109385 -0.144232  0.117592  0.003577 -0.003806 -0.011445
  6H   2s        -0.641663 -0.846082  0.689807  0.477073 -0.507670 -1.526540
  6H   1pz        0.004756 -0.010734  0.007607  0.010379  0.006423 -0.013877
  6H   1px       -0.008485  0.002023  0.010936  0.009321 -0.014159 -0.007363
  6H   1py       -0.009809 -0.009141 -0.003989 -0.008073 -0.004638 -0.015965
  7H   1s        -0.063460 -0.012109 -0.205966  0.010164  0.001757  0.007202
  7H   2s        -0.372262 -0.071032 -1.208220  1.355733  0.234295  0.960597
  7H   1pz        0.005779 -0.009809  0.008129 -0.014148  0.010082 -0.006303
  7H   1px       -0.007462  0.002948  0.011459 -0.015207 -0.010500  0.000211
  7H   1py       -0.009538 -0.008359 -0.005903  0.003686  0.005292  0.017319
                     24        25        26        27        28        29   
                   0.17303   0.33910   0.33910   0.33910   0.37742   0.37742
                   0.00000   0.00000   0.00000   0.00000   0.00000   0.00000
                  --------  --------  --------  --------  --------  --------
  0C   1s        -0.065695 -0.033492 -0.008345  0.028949  0.000000  0.000000
  0C   2s         0.568926 -0.097866 -0.024385  0.084589 -0.000000 -0.000000
  0C   3s        -0.180550  0.733959  0.182876 -0.634390  0.000000 -0.000000
  0C   1pz       -0.000518 -0.041958 -0.332455 -0.150448  0.276771 -0.220202
  0C   1px        0.000518 -0.234478 -0.047093 -0.278789 -0.052315 -0.349792
  0C   1py       -0.000518 -0.183824  0.287528 -0.135858 -0.329087 -0.129590
  0C   2pz       -0.105099  0.241133  0.198169 -0.128350 -0.402242  0.320028
  0C   2px        0.105099 -0.122585 -0.035403  0.312425  0.076032  0.508366
  0C   2py       -0.105099  0.301971 -0.067706 -0.134607  0.478274  0.188338
  0C   1dz2      -0.000000 -0.006254 -0.046450 -0.020626  0.017535 -0.013951
  0C   1dxz      -0.041390  0.035360  0.006384 -0.028418 -0.032803 -0.012917
  0C   1dyz       0.041390 -0.032315 -0.008134  0.031436 -0.005215 -0.034867
  0C   1dx2y2    -0.000000  0.033670 -0.019353  0.033376  0.013951  0.017535
  0C   1dxy      -0.041390  0.034327  0.010897 -0.028311  0.027588 -0.021949
  1C   1s        -0.065695  0.032756 -0.030383  0.005771  0.000000 -0.000000
  1C   2s         0.568926  0.095714 -0.088781  0.016862  0.000000  0.000000
  1C   3s        -0.180550 -0.717823  0.665828 -0.126461 -0.000000  0.000000
  1C   1pz        0.000518 -0.037776 -0.112529 -0.347608 -0.276771  0.220202
  1C   1px       -0.000518 -0.238660 -0.267019 -0.081628  0.052315  0.349792
  1C   1py       -0.000518  0.192378  0.162380 -0.267478 -0.329087 -0.129590
  1C   2pz        0.105099  0.234434 -0.154169  0.187516  0.402242 -0.320028
  1C   2px       -0.105099 -0.115886  0.316936 -0.003441 -0.076032 -0.508366
  1C   2py       -0.105099 -0.300734  0.132791  0.076259  0.478274  0.188338
  1C   1dz2      -0.000000  0.005662  0.015322  0.048532  0.017535 -0.013951
  1C   1dxz      -0.041390 -0.034674  0.029682 -0.003915 -0.032803 -0.012917
  1C   1dyz      -0.041390 -0.031537  0.032807 -0.005268  0.005215  0.034867
  1C   1dx2y2    -0.000000 -0.034695 -0.034563  0.014959  0.013951  0.017535
  1C   1dxy       0.041390  0.033549 -0.030045  0.008392 -0.027588  0.021949
  2C   1s        -0.065695  0.016351  0.041309  0.007458 -0.000000 -0.000000
  2C   2s         0.568926  0.047779  0.120706  0.021792  0.000000 -0.000000
  2C   3s        -0.180550 -0.358323 -0.905254 -0.163433  0.000000  0.000000
  2C   1pz       -0.000518  0.241087 -0.050486 -0.272487  0.276771 -0.220202
  2C   1px       -0.000518 -0.331818  0.140097 -0.072048  0.052315  0.349792
  2C   1py        0.000518 -0.086485  0.100337 -0.342599  0.329087  0.129590
  2C   2pz       -0.105099 -0.212326 -0.253566  0.067167 -0.402242  0.320028
  2C   2px       -0.105099  0.033360 -0.335297 -0.018790 -0.076032 -0.508366
  2C   2py        0.105099  0.146026  0.232188  0.196608 -0.478274 -0.188338
  2C   1dz2       0.000000  0.033809 -0.006540 -0.037899  0.017535 -0.013951
  2C   1dxz       0.041390  0.017239  0.041232  0.010069  0.032803  0.012917
  2C   1dyz      -0.041390 -0.014194 -0.042982 -0.007051  0.005215  0.034867
  2C   1dx2y2     0.000000 -0.033670  0.019353 -0.033376  0.013951  0.017535
  2C   1dxy      -0.041390 -0.018364 -0.041595 -0.005592  0.027588 -0.021949
  3C   1s        -0.065695 -0.015615 -0.002580 -0.042177 -0.000000 -0.000000
  3C   2s         0.568926 -0.045627 -0.007540 -0.123243  0.000000  0.000000
  3C   3s        -0.180550  0.342187  0.056549  0.924284 -0.000000 -0.000000
  3C   1pz        0.000518  0.236906 -0.270412 -0.075327 -0.276771  0.220202
  3C   1px        0.000518 -0.335999 -0.079829  0.125112 -0.052315 -0.349792
  3C   1py        0.000518  0.095039  0.349571 -0.060737  0.329087  0.129590
  3C   2pz        0.105099 -0.205628  0.098772 -0.248699  0.402242 -0.320028
  3C   2px        0.105099  0.040059  0.017042 -0.334656  0.076032  0.508366
  3C   2py        0.105099 -0.144789 -0.167103 -0.254956 -0.478274 -0.188338
  3C   1dz2       0.000000 -0.033217  0.037669  0.009993  0.017535 -0.013951
  3C   1dxz       0.041390 -0.016553 -0.005166 -0.042402  0.032803  0.012917
  3C   1dyz       0.041390 -0.013416 -0.002040 -0.043755 -0.005215 -0.034867
  3C   1dx2y2     0.000000  0.034695  0.034563 -0.014959  0.013951  0.017535
  3C   1dxy       0.041390 -0.017586 -0.000653 -0.042296 -0.027588  0.021949
  4H   1s         0.336011 -0.506137 -0.126111  0.437474  0.000000  0.000000
  4H   2s        -0.518354  0.471577  0.117500 -0.407603 -0.000000 -0.000000
  4H   1pz       -0.010179  0.021466  0.003009 -0.019910 -0.019810  0.015761
  4H   1px        0.010179 -0.023474 -0.005767  0.016792  0.003745  0.025037
  4H   1py       -0.010179  0.020435  0.007513 -0.019804  0.023555  0.009276
  5H   1s         0.336011  0.495009 -0.459154  0.087207  0.000000 -0.000000
  5H   2s        -0.518354 -0.461210  0.427802 -0.081253 -0.000000  0.000000
  5H   1pz        0.010179  0.021018 -0.020567  0.001226  0.019810 -0.015761
  5H   1px       -0.010179 -0.023026  0.017810 -0.004344 -0.003745 -0.025037
  5H   1py       -0.010179 -0.019895  0.020929 -0.005694  0.023555  0.009276
  6H   1s         0.336011 -0.235971 -0.038996 -0.637384 -0.000000 -0.000000
  6H   2s        -0.518354  0.219859  0.036334  0.593863  0.000000  0.000000
  6H   1pz        0.010179 -0.008429 -0.003642 -0.027963  0.019810 -0.015761
  6H   1px        0.010179 -0.012591 -0.002257 -0.026507  0.003745  0.025037
  6H   1py        0.010179 -0.009460  0.000862 -0.027857 -0.023555 -0.009276
  7H   1s         0.336011  0.247099  0.624261  0.112703 -0.000000 -0.000000
  7H   2s        -0.518354 -0.230226 -0.581636 -0.105008  0.000000  0.000000
  7H   1pz       -0.010179 -0.008877 -0.027218 -0.006827 -0.019810  0.015761
  7H   1px       -0.010179 -0.013039 -0.025834 -0.005371 -0.003745 -0.025037
  7H   1py        0.010179  0.010000  0.027581  0.002359 -0.023555 -0.009276
                     30        31        32        33        34        35   
                   0.49955   0.50607   0.50607   0.50607   0.51231   0.51231
                   0.00000   0.00000   0.00000   0.00000   0.00000   0.00000
                  --------  --------  --------  --------  --------  --------
  0C   1s         0.088139 -0.031192 -0.113163 -0.028851 -0.000000 -0.000000
  0C   2s        -0.271046  0.256219  0.929551  0.236986 -0.000000  0.000000
  0C   3s         1.413579 -2.051414 -7.442440 -1.897427  0.000000 -0.000000
  0C   1pz        0.206494 -0.031189  0.512310 -0.047104  0.307079 -0.000489
  0C   1px       -0.206494 -0.049689 -0.394352 -0.328132  0.406461 -0.298272
  0C   1py        0.206494  0.337859  0.386192  0.048581  0.099382 -0.297782
  0C   2pz       -0.595419  0.008380 -2.911735  0.093628 -0.858964  0.001368
  0C   2px        0.595419  0.372063  2.356866  1.671463 -1.136956  0.834327
  0C   2py       -0.595419 -1.727600 -2.318483 -0.356469 -0.277993  0.832959
  0C   1dz2      -0.000000  0.040661 -0.022058  0.042558 -0.007711  0.000012
  0C   1dxz      -0.053087 -0.042673  0.001238  0.009587 -0.004182  0.012530
  0C   1dyz       0.053087 -0.010892  0.000279  0.042376 -0.017103  0.012551
  0C   1dx2y2     0.000000  0.045107 -0.001277 -0.043758  0.007334 -0.008642
  0C   1dxy      -0.053087  0.025925 -0.022205  0.027372 -0.012921  0.000021
  1C   1s         0.088139 -0.097288  0.059723  0.039743 -0.000000  0.000000
  1C   2s        -0.271046  0.799146 -0.490575 -0.326461  0.000000 -0.000000
  1C   3s         1.413578 -6.398354  3.927785  2.613811 -0.000000  0.000000
  1C   1pz       -0.206494 -0.346218  0.381275 -0.020396  0.054418  0.499548
  1C   1px        0.206494  0.265340 -0.263317 -0.354841  0.153800  0.201766
  1C   1py        0.206494  0.499924 -0.037719 -0.119609 -0.099382  0.297782
  1C   2pz        0.595419  2.060041 -2.058352 -0.080315 -0.152218 -1.397340
  1C   2px       -0.595419 -1.679598  1.503484  1.845405 -0.430211 -0.564381
  1C   2py       -0.595419 -2.783067  0.442285  0.738890  0.277993 -0.832959
  1C   1dz2      -0.000000  0.006582  0.041708 -0.046564  0.001366  0.012544
  1C   1dxz      -0.053087 -0.030147 -0.031527 -0.003413  0.004182 -0.012530
  1C   1dyz      -0.053087  0.013457  0.010407  0.040311 -0.006472 -0.008490
  1C   1dx2y2    -0.000000  0.036719  0.035313  0.036821 -0.003671  0.001392
  1C   1dxy       0.053087  0.001576 -0.032333  0.029437 -0.002290 -0.021020
  2C   1s         0.088139  0.084118 -0.002271  0.086777 -0.000000 -0.000000
  2C   2s        -0.271046 -0.690962  0.018653 -0.712810  0.000000  0.000000
  2C   3s         1.413578  5.532183 -0.149342  5.707109 -0.000000 -0.000000
  2C   1pz        0.206494 -0.313925  0.240405 -0.330621 -0.307079  0.000489
  2C   1px        0.206494 -0.179461 -0.111311 -0.470167 -0.153800 -0.201766
  2C   1py       -0.206494  0.467631  0.103151  0.190616 -0.460879 -0.201277
  2C   2pz       -0.595419  1.849729 -1.140921  1.940061  0.858964 -0.001368
  2C   2px       -0.595419  1.217217  0.513530  2.596479  0.430211  0.564381
  2C   2py        0.595419 -2.572754 -0.475147 -1.281486  1.289175  0.563013
  2C   1dz2       0.000000 -0.001739 -0.062833  0.000041  0.007711 -0.000012
  2C   1dxz       0.053087 -0.032643 -0.020639  0.020564  0.019393  0.008469
  2C   1dyz      -0.053087 -0.020922  0.022155  0.031398  0.006472  0.008490
  2C   1dx2y2    -0.000000 -0.045107  0.001277  0.043758  0.008912  0.005843
  2C   1dxy      -0.053087  0.004072 -0.043220  0.005459  0.012921 -0.000021
  3C   1s         0.088139  0.044362  0.055712 -0.097670  0.000000  0.000000
  3C   2s        -0.271046 -0.364402 -0.457628  0.802285 -0.000000 -0.000000
  3C   3s         1.413578  2.917585  3.663998 -6.423493  0.000000  0.000000
  3C   1pz       -0.206494  0.001104  0.371440 -0.357329 -0.054418 -0.499548
  3C   1px       -0.206494  0.135568  0.019724 -0.496876 -0.406461  0.298272
  3C   1py       -0.206494  0.370152  0.245322 -0.261644  0.460879  0.201277
  3C   2pz        0.595419 -0.201932 -1.994303  2.114004  0.152218  1.397340
  3C   2px        0.595419 -0.834444 -0.339853  2.770422  1.136956 -0.834327
  3C   2py        0.595419 -1.937912 -1.401051  1.663907 -1.289175 -0.563013
  3C   1dz2      -0.000000 -0.045504  0.043183  0.003964 -0.001366 -0.012544
  3C   1dxz       0.053087 -0.040177 -0.009650 -0.014391 -0.019393 -0.008469
  3C   1dyz       0.053087  0.003427  0.032283  0.029333  0.017103 -0.012551
  3C   1dx2y2     0.000000 -0.036719 -0.035313 -0.036821 -0.012575  0.001406
  3C   1dxy       0.053087  0.028421 -0.033093  0.003395  0.002290  0.021020
  4H   1s         0.164105  0.063798  0.231455  0.059009 -0.000000  0.000000
  4H   2s        -1.422328 -0.274807 -0.996990 -0.254179  0.000000 -0.000000
  4H   1pz       -0.049624 -0.017971 -0.040178 -0.017352 -0.013375  0.000021
  4H   1px        0.049624  0.014735  0.044896  0.002342 -0.017704  0.012992
  4H   1py       -0.049624 -0.003208 -0.045222 -0.013524 -0.004329  0.012970
  5H   1s         0.164105  0.198984 -0.122151 -0.081288  0.000000 -0.000000
  5H   2s        -1.422328 -0.857124  0.526166  0.350146 -0.000000  0.000000
  5H   1pz        0.049624  0.038310 -0.016768 -0.022124 -0.002370 -0.021759
  5H   1px       -0.049624 -0.041545  0.021486  0.007114 -0.006699 -0.008788
  5H   1py       -0.049624 -0.032162  0.030510  0.016523  0.004329 -0.012970
  6H   1s         0.164105 -0.090735 -0.113948  0.199766 -0.000000 -0.000000
  6H   2s        -1.422328  0.390840  0.490829 -0.860491  0.000000  0.000000
  6H   1pz        0.049624 -0.023740 -0.015011  0.038071  0.002370  0.021759
  6H   1px        0.049624 -0.018361 -0.029080  0.032489  0.017704 -0.012992
  6H   1py        0.049624 -0.008978 -0.020056  0.041898 -0.020074 -0.008767
  7H   1s         0.164105 -0.172047  0.004644 -0.177487 -0.000000  0.000000
  7H   2s        -1.422328  0.741091 -0.020006  0.764524  0.000000 -0.000000
  7H   1pz       -0.049624  0.032541  0.008399  0.033299  0.013375 -0.000021
  7H   1px       -0.049624  0.037920 -0.005670  0.027717  0.006699  0.008788
  7H   1py        0.049624 -0.026393  0.005344 -0.038899  0.020074  0.008767
                     36        37        38        39        40        41   
                   0.51231   0.58124   0.58124   0.58124   0.99442   0.99442
                   0.00000   0.00000   0.00000   0.00000   0.00000   0.00000
                  --------  --------  --------  --------  --------  --------
  0C   1s        -0.000000 -0.015709 -0.092218  0.186045 -0.022789 -0.072792
  0C   2s         0.000000  0.121950  0.715908 -1.444316  0.233285  0.745149
  0C   3s        -0.000000 -0.415913 -2.441617  4.925866 -2.059442 -6.578184
  0C   1pz       -0.399884 -0.032745 -0.061060  0.247831  0.228424  0.055500
  0C   1px       -0.005354  0.059824  0.145297 -0.203791 -0.050755 -0.084078
  0C   1py        0.394530  0.035782 -0.127007  0.220929 -0.179047  0.180261
  0C   2pz        1.118559  0.141595 -0.262756 -0.509486 -0.368897 -2.817491
  0C   2px        0.014977 -0.367446 -0.439814  0.142172  0.800911  2.748002
  0C   2py       -1.103583 -0.429946  0.287272 -0.285110 -1.359690 -2.514125
  0C   1dz2       0.010042  0.008303 -0.030085 -0.014211 -0.209055  0.054784
  0C   1dxz      -0.016601  0.017913  0.004131 -0.018915 -0.058067  0.080701
  0C   1dyz       0.000225  0.010743  0.001351  0.024052 -0.023255 -0.046663
  0C   1dx2y2     0.005642  0.033172  0.006346  0.005946 -0.142205  0.059520
  0C   1dxy       0.016827 -0.002626  0.023897 -0.010852  0.086129  0.036550
  1C   1s         0.000000 -0.183000  0.085396 -0.050817 -0.054354  0.045743
  1C   2s        -0.000000  1.420673 -0.662949  0.394505  0.556406 -0.468251
  1C   3s         0.000000 -4.845229  2.260998 -1.345465 -4.911956  4.133727
  1C   1pz        0.041178  0.245201 -0.051518  0.058679 -0.060908 -0.045952
  1C   1px        0.435708 -0.218121  0.135755 -0.014639  0.238577  0.017374
  1C   1py       -0.394530 -0.198218  0.121431 -0.110385 -0.060660 -0.264312
  1C   2pz       -0.115182 -0.513046 -0.285231 -0.063979  2.056499 -1.967048
  1C   2px       -1.218765  0.287195 -0.417340 -0.303336 -1.624485  1.897559
  1C   2py        1.103583  0.121192 -0.297872  0.495229 -2.352099  1.212620
  1C   1dz2       0.001034  0.014836  0.030879 -0.001536  0.020043 -0.121059
  1C   1dxz       0.016601  0.024329 -0.002681 -0.009832 -0.008839 -0.104161
  1C   1dyz      -0.018334  0.018363  0.001613  0.018866  0.097054 -0.004478
  1C   1dx2y2    -0.012037  0.006906 -0.004970 -0.033220 -0.185173 -0.174312
  1C   1dxy      -0.001733 -0.010247  0.023636 -0.005666 -0.034181 -0.005635
  2C   1s         0.000000  0.052770 -0.141500 -0.143376  0.064479  0.009358
  2C   2s        -0.000000 -0.409670  1.098502  1.113063 -0.660050 -0.095791
  2C   3s         0.000000  1.397186 -3.746460 -3.796122  5.826928  0.845643
  2C   1pz        0.399884  0.063041 -0.129995 -0.212950 -0.098882 -0.252609
  2C   1px       -0.435708  0.111664 -0.181618 -0.144106 -0.207116  0.153838
  2C   1py       -0.035824 -0.016059  0.199907  0.161244 -0.022686 -0.057655
  2C   2pz       -1.118559 -0.084008 -0.100395  0.575786  2.374824 -0.234692
  2C   2px        1.218765 -0.489546  0.330165  0.001598  2.111645  0.753613
  2C   2py        0.100206 -0.307846 -0.482707 -0.144537 -2.670424 -0.519736
  2C   1dz2      -0.010042  0.000329 -0.024346  0.024149  0.004764  0.256062
  2C   1dxz       0.001507  0.019335 -0.004832 -0.017279  0.006951 -0.018229
  2C   1dyz       0.018334  0.009322  0.010314  0.022416 -0.088273  0.052266
  2C   1dx2y2     0.006836 -0.033172 -0.006346 -0.005946  0.142205 -0.059520
  2C   1dxy      -0.016827 -0.005252  0.025787  0.001781 -0.049971 -0.091567
  3C   1s         0.000000  0.145938  0.148322  0.008148  0.012664  0.017692
  3C   2s        -0.000000 -1.132953 -1.151461 -0.063252 -0.129641 -0.181107
  3C   3s         0.000000  3.863955  3.927078  0.215721  1.144470  1.598813
  3C   1pz       -0.041178 -0.214904 -0.139537 -0.023798  0.190450 -0.151158
  3C   1px        0.005354 -0.166281 -0.191160  0.045046  0.082216  0.255290
  3C   1py        0.035824 -0.146378 -0.205484 -0.050701 -0.217021 -0.026396
  3C   2pz        0.115182  0.570633 -0.077921  0.130279 -0.050572 -1.085135
  3C   2px       -0.014977  0.165096  0.352639 -0.443909 -0.313751 -0.096830
  3C   2py       -0.100206 -0.000908  0.472107  0.354655 -1.041365 -0.781769
  3C   1dz2      -0.001034 -0.023467  0.023552 -0.008402  0.184248 -0.189787
  3C   1dxz      -0.001507  0.022908  0.006282 -0.011468 -0.073857 -0.005231
  3C   1dyz      -0.000225  0.016942  0.010576  0.017230  0.032037  0.094452
  3C   1dx2y2    -0.000442 -0.006906  0.004970  0.033220  0.185173  0.174312
  3C   1dxy       0.001733  0.002368  0.026049 -0.003405  0.070338 -0.049382
  4H   1s         0.000000 -0.003022 -0.017742  0.035793 -0.206625 -0.659993
  4H   2s        -0.000000  0.164859  0.967803 -1.952505 -0.215233 -0.687488
  4H   1pz        0.017418  0.007126  0.019705 -0.060781  0.170013 -0.033558
  4H   1px        0.000233 -0.011694 -0.033916  0.053352 -0.018045  0.009114
  4H   1py       -0.017184 -0.004434  0.030830 -0.056243 -0.178514  0.073156
  5H   1s        -0.000000 -0.035207  0.016429 -0.009777 -0.492820  0.414740
  5H   2s         0.000000  1.920543 -0.896210  0.533313 -0.513350  0.432017
  5H   1pz       -0.001794 -0.060027  0.017400 -0.015081  0.008408 -0.090223
  5H   1px       -0.018978  0.055459 -0.031610  0.007652  0.143560  0.065779
  5H   1py        0.017184  0.052101 -0.029194  0.023804 -0.112390 -0.175159
  6H   1s         0.000000  0.028077  0.028535  0.001567  0.114825  0.160410
  6H   2s        -0.000000 -1.531587 -1.556608 -0.085507  0.119609  0.167092
  6H   1pz        0.001794  0.051137  0.038665  0.004846  0.148803 -0.148986
  6H   1px       -0.000233  0.042934  0.047374 -0.006768  0.056225  0.198666
  6H   1py       -0.001560  0.039576  0.049791  0.009384 -0.199724 -0.042272
  7H   1s        -0.000000  0.010152 -0.027223 -0.027584  0.584620  0.084844
  7H   2s        -0.000000 -0.553814  1.485015  1.504700  0.608974  0.088378
  7H   1pz       -0.017418 -0.016016  0.036360  0.050546 -0.012802 -0.205651
  7H   1px        0.018978 -0.024219  0.045069  0.038932 -0.105380  0.142001
  7H   1py        0.001560  0.008091 -0.048154 -0.041823 -0.091180 -0.059731
                     42        43        44        45        46        47   
                   0.99442   1.06840   1.15572   1.15572   1.15572   1.20212
                   0.00000   0.00000   0.00000   0.00000   0.00000   0.00000
                  --------  --------  --------  --------  --------  --------
  0C   1s         0.005069 -0.082566  0.003705  0.005848 -0.005624  0.000000
  0C   2s        -0.051889  1.147903 -0.196278 -0.309782  0.297920 -0.000000
  0C   3s         0.458078  0.352000  3.625441  5.721970 -5.502881  0.000000
  0C   1pz        0.135468  0.122472 -0.186000  0.140427  0.088130  0.036082
  0C   1px        0.252912 -0.122472  0.059124  0.180167  0.161638  0.100129
  0C   1py        0.095171  0.122472  0.194319 -0.040444  0.150622  0.064047
  0C   2pz        0.534996 -0.820485  1.057629  3.240018 -2.308180 -0.071703
  0C   2px        0.409376  0.820485 -1.516848 -2.079657  3.212194 -0.198980
  0C   2py        0.437011 -0.820485  2.434161  2.585372 -2.081995 -0.127277
  0C   1dz2      -0.153155  0.000000 -0.241615  0.238885  0.089214 -0.025631
  0C   1dxz       0.032502 -0.109326 -0.103018 -0.013341 -0.035207 -0.131741
  0C   1dyz       0.090678  0.109326 -0.005950 -0.046733 -0.099050 -0.205959
  0C   1dx2y2     0.215399  0.000000 -0.209117 -0.115286 -0.257648  0.067334
  0C   1dxy       0.046762 -0.109326  0.060500 -0.091107 -0.008338 -0.074218
  1C   1s         0.028231 -0.082566  0.005993 -0.002419  0.006149 -0.000000
  1C   2s        -0.288989  1.147903 -0.317423  0.128118 -0.325691  0.000000
  1C   3s         2.551201  0.352000  5.863115 -2.366458  6.015830 -0.000000
  1C   1pz        0.260361 -0.122472  0.047294  0.222928  0.100742 -0.036082
  1C   1px        0.128018  0.122472 -0.174170  0.097665  0.149026 -0.100129
  1C   1py        0.008301  0.122472  0.139301  0.158425 -0.132587  0.064047
  1C   2pz       -0.511952  0.820485 -2.627965  1.936653 -2.507422  0.071703
  1C   2px        1.456324 -0.820485  2.168747 -0.776291  3.411437  0.198980
  1C   2py        1.165222 -0.820485  3.303331 -0.556378  2.392163 -0.127277
  1C   1dz2       0.234744 -0.000000 -0.028449 -0.334390 -0.103813 -0.025631
  1C   1dxz      -0.003621 -0.109326 -0.091381 -0.055406  0.024698 -0.131741
  1C   1dyz       0.038745 -0.109326  0.043397 -0.029282 -0.096382  0.205959
  1C   1dx2y2    -0.074083  0.000000 -0.258647 -0.050133  0.232361  0.067334
  1C   1dxy       0.098695  0.109326  0.011154 -0.108558 -0.011006  0.074218
  2C   1s         0.039983 -0.082566 -0.007019  0.003770  0.004011 -0.000000
  2C   2s        -0.409291  1.147903  0.371817 -0.199669 -0.212438  0.000000
  2C   3s         3.613230  0.352000 -6.867834  3.688085  3.923945 -0.000000
  2C   1pz        0.004521  0.122472  0.071997  0.190433 -0.143646  0.036082
  2C   1px        0.083941  0.122472  0.138844 -0.051197  0.200459 -0.100129
  2C   1py        0.264141 -0.122472  0.114599  0.190919  0.111801 -0.064047
  2C   2pz        1.632695 -0.820485 -3.018223  2.450006  1.353437 -0.071703
  2C   2px        1.825811 -0.820485 -2.776275  1.575446  2.598896  0.198980
  2C   2py       -0.979424  0.820485  3.693589 -1.069731 -1.468697  0.127277
  2C   1dz2      -0.067611 -0.000000  0.057045  0.296774 -0.179093 -0.025631
  2C   1dxz       0.102763  0.109326 -0.086156 -0.062279 -0.026995  0.131741
  2C   1dyz       0.020417 -0.109326 -0.022812  0.002205 -0.107261  0.205959
  2C   1dx2y2    -0.215399 -0.000000  0.209117  0.115286  0.257648  0.067334
  2C   1dxy      -0.007688 -0.109326  0.005929 -0.101684  0.040687 -0.074218
  3C   1s        -0.073283 -0.082566 -0.002679 -0.007199 -0.004535  0.000000
  3C   2s         0.750170  1.147903  0.141883  0.381333  0.240209 -0.000000
  3C   3s        -6.622509  0.352000 -2.620722 -7.043596 -4.436894  0.000000
  3C   1pz       -0.120372 -0.122472 -0.161297  0.107932 -0.156258 -0.036082
  3C   1px       -0.040952 -0.122472 -0.094450 -0.133698  0.187847  0.100129
  3C   1py       -0.160670 -0.122472  0.219022 -0.072939 -0.093766 -0.064047
  3C   2pz        2.679643  0.820485  0.667371  3.753371  1.552679  0.071703
  3C   2px        2.872759  0.820485  0.909320  2.878811  2.798138 -0.198980
  3C   2py        2.581658  0.820485  2.043903  3.098725  1.778864  0.127277
  3C   1dz2      -0.013978 -0.000000  0.213019 -0.201269  0.193693 -0.025631
  3C   1dxz      -0.073882  0.109326 -0.108243 -0.006468  0.016486  0.131741
  3C   1dyz      -0.031516  0.109326  0.026534  0.019656 -0.104594 -0.205959
  3C   1dx2y2     0.074083 -0.000000  0.258647  0.050133 -0.232361  0.067334
  3C   1dxy      -0.059621  0.109326  0.055275 -0.084233  0.043355  0.074218
  4H   1s         0.045959 -0.709262  0.466038  0.735539 -0.707376  0.000000
  4H   2s         0.047874 -0.518554  0.544255  0.858988 -0.826098  0.000000
  4H   1pz        0.121514  0.039279 -0.000864 -0.073123  0.033421  0.101338
  4H   1px        0.210683 -0.039279  0.021843  0.020113 -0.074720  0.281218
  4H   1py        0.087046  0.039279 -0.063750 -0.043216  0.023088  0.179880
  5H   1s         0.255964 -0.709262  0.753683 -0.304200  0.773314 -0.000000
  5H   2s         0.266627 -0.518554  0.880176 -0.355255  0.903102 -0.000000
  5H   1pz        0.191273 -0.039279  0.043315 -0.057500  0.035809 -0.101338
  5H   1px        0.140925  0.039279 -0.022336  0.004490 -0.077108 -0.281218
  5H   1py        0.038525  0.039279 -0.074168 -0.005557 -0.030543  0.179880
  6H   1s        -0.664441 -0.709262 -0.336885 -0.905430 -0.570347  0.000000
  6H   2s        -0.692120 -0.518554 -0.393425 -1.057391 -0.666071  0.000000
  6H   1pz       -0.021384 -0.039279  0.003814 -0.079277 -0.012859 -0.101338
  6H   1px        0.046547 -0.039279 -0.007239 -0.039323 -0.069757  0.281218
  6H   1py       -0.055852 -0.039279 -0.059072 -0.049370 -0.023192 -0.179880
  7H   1s         0.362518 -0.709262 -0.882836  0.474090  0.504409 -0.000000
  7H   2s         0.377620 -0.518554 -1.031006  0.553659  0.589066 -0.000000
  7H   1pz        0.048374  0.039279  0.047993 -0.063654 -0.010470  0.101338
  7H   1px        0.116306  0.039279  0.036939 -0.023700 -0.067369 -0.281218
  7H   1py        0.181424 -0.039279 -0.078846  0.000597  0.015736 -0.179880
                     48        49        50        51        52        53   
                   1.20212   1.51547   1.51547   1.51547   1.57604   1.60356
                   0.00000   0.00000   0.00000   0.00000   0.00000   0.00000
                  --------  --------  --------  --------  --------  --------
[...]
     17       0.000011  -0.000000  -0.000008  -0.000908  -0.000908  -0.000087
     18       0.000003   0.000000   0.000000  -0.000008  -0.000011  -0.000000
     19       0.000000  -0.000008  -0.000011  -0.000011  -0.000008  -0.000000
     20       0.000000  -0.000011  -0.000008  -0.000000  -0.000000   0.000003
     21      -0.000008   0.000011   0.000000   0.000003   0.000000  -0.000000
     22       0.000011  -0.000008  -0.000000   0.000000  -0.000008   0.000011
     23       0.000000  -0.000000   0.000003  -0.000000   0.000011  -0.000008
                 18         19         20         21         22         23    
      0       0.000040  -0.000051  -0.000051  -0.000077   0.000136  -0.000051
      1      -0.000051  -0.000077  -0.000136   0.000136  -0.000077   0.000051
      2      -0.000051  -0.000136  -0.000077  -0.000051   0.000051   0.000040
      3      -0.000077  -0.000136  -0.000051   0.000040   0.000051  -0.000051
      4      -0.000136  -0.000077  -0.000051   0.000051  -0.000077   0.000136
      5      -0.000051  -0.000051   0.000040  -0.000051   0.000136  -0.000077
      6      -0.000077  -0.000051  -0.000136   0.000213   0.000661  -0.000661
      7      -0.000051   0.000040  -0.000051   0.000661   0.000213   0.000661
      8      -0.000136  -0.000051  -0.000077  -0.000661   0.000661   0.000213
      9       0.000213  -0.000661  -0.000661  -0.000077   0.000051  -0.000136
     10      -0.000661   0.000213  -0.000661   0.000051   0.000040   0.000051
     11      -0.000661  -0.000661   0.000213  -0.000136   0.000051  -0.000077
     12       0.000003   0.000000   0.000000  -0.000008   0.000011   0.000000
     13       0.000000  -0.000008  -0.000011   0.000011  -0.000008  -0.000000
     14       0.000000  -0.000011  -0.000008   0.000000  -0.000000   0.000003
     15      -0.000008  -0.000011  -0.000000   0.000003   0.000000  -0.000000
     16      -0.000011  -0.000008  -0.000000   0.000000  -0.000008   0.000011
     17      -0.000000  -0.000000   0.000003  -0.000000   0.000011  -0.000008
     18      -0.000087   0.000908   0.000908  -0.000008  -0.000000  -0.000011
     19       0.000908  -0.000087   0.000908  -0.000000   0.000003  -0.000000
     20       0.000908   0.000908  -0.000087  -0.000011  -0.000000  -0.000008
     21      -0.000008  -0.000000  -0.000011  -0.000087  -0.000908   0.000908
     22      -0.000000   0.000003  -0.000000  -0.000908  -0.000087  -0.000908
     23      -0.000011  -0.000000  -0.000008   0.000908  -0.000908  -0.000087

done   (      0.0 sec)
Dipol derivatives                                ... done   (      0.4 sec)

-------
TIMINGS
-------

Total SCF Hessian time: 0 days 0 hours 0 min 15 sec 
                   F(y)            G[Q(x)]           CPSCF         Total
Table01         0.5  0.03         0.4  0.02         6.8  0.44        15.6 
Table01a        0.5  0.03,        0.4, 0.02,        6.8  0.44        15.6 
Table01b        0.5   3.4,        0.4,  2.3,        6.8  43.6        15.6 

Writing the Hessian file to the disk             ... done


Maximum memory used throughout the entire calculation: 132.7 MB

-----------------------
VIBRATIONAL FREQUENCIES
-----------------------

Scaling factor for frequencies =  1.000000000  (already applied!)

   0:         0.00 cm**-1
   1:         0.00 cm**-1
   2:         0.00 cm**-1
   3:         0.00 cm**-1
   4:         0.00 cm**-1
   5:         0.00 cm**-1
   6:       559.59 cm**-1
   7:       559.59 cm**-1
   8:       752.53 cm**-1
   9:       752.53 cm**-1
  10:       752.53 cm**-1
  11:       841.14 cm**-1
  12:       841.14 cm**-1
  13:       867.79 cm**-1
  14:       867.79 cm**-1
  15:       867.79 cm**-1
  16:      1138.43 cm**-1
  17:      1138.43 cm**-1
  18:      1138.43 cm**-1
  19:      1444.28 cm**-1
  20:      3250.81 cm**-1
  21:      3250.81 cm**-1
  22:      3250.81 cm**-1
  23:      3288.08 cm**-1


------------
NORMAL MODES
------------

These modes are the Cartesian displacements weighted by the diagonal matrix
M(i,i)=1/sqrt(m[i]) where m[i] is the mass of the displaced atom
Thus, these vectors are normalized but *not* orthogonal

                  0          1          2          3          4          5    
      0       0.000000   0.000000   0.000000   0.000000   0.000000   0.000000
      1       0.000000   0.000000   0.000000   0.000000   0.000000   0.000000
      2       0.000000   0.000000   0.000000   0.000000   0.000000   0.000000
      3       0.000000   0.000000   0.000000   0.000000   0.000000   0.000000
      4       0.000000   0.000000   0.000000   0.000000   0.000000   0.000000
      5       0.000000   0.000000   0.000000   0.000000   0.000000   0.000000
      6       0.000000   0.000000   0.000000   0.000000   0.000000   0.000000
      7       0.000000   0.000000   0.000000   0.000000   0.000000   0.000000
      8       0.000000   0.000000   0.000000   0.000000   0.000000   0.000000
      9       0.000000   0.000000   0.000000   0.000000   0.000000   0.000000
     10       0.000000   0.000000   0.000000   0.000000   0.000000   0.000000
     11       0.000000   0.000000   0.000000   0.000000   0.000000   0.000000
     12       0.000000   0.000000   0.000000   0.000000   0.000000   0.000000
     13       0.000000   0.000000   0.000000   0.000000   0.000000   0.000000
     14       0.000000   0.000000   0.000000   0.000000   0.000000   0.000000
     15       0.000000   0.000000   0.000000   0.000000   0.000000   0.000000
     16       0.000000   0.000000   0.000000   0.000000   0.000000   0.000000
     17       0.000000   0.000000   0.000000   0.000000   0.000000   0.000000
     18       0.000000   0.000000   0.000000   0.000000   0.000000   0.000000
     19       0.000000   0.000000   0.000000   0.000000   0.000000   0.000000
     20       0.000000   0.000000   0.000000   0.000000   0.000000   0.000000
     21       0.000000   0.000000   0.000000   0.000000   0.000000   0.000000
     22       0.000000   0.000000   0.000000   0.000000   0.000000   0.000000
     23       0.000000   0.000000   0.000000   0.000000   0.000000   0.000000
                  6          7          8          9         10         11    
      0       0.075495   0.016414   0.042121   0.003731  -0.011310   0.121199
      1       0.023533   0.073588  -0.039226  -0.017789   0.007803   0.154977
      2       0.051962  -0.057174  -0.042918  -0.008147  -0.002767  -0.033778
      3      -0.075495  -0.016414   0.027341  -0.034154   0.001413  -0.121199
      4       0.023533   0.073587   0.017198  -0.038674   0.011160   0.154977
      5      -0.051962   0.057174  -0.028138   0.029737  -0.015490   0.033778
      6      -0.075495  -0.016413   0.012283   0.005167  -0.041694  -0.121199
      7      -0.023533  -0.073588  -0.009388  -0.019225   0.038187  -0.154977
      8       0.051962  -0.057174  -0.001552   0.010288  -0.042517  -0.033778
      9       0.075495   0.016413  -0.002497  -0.032718  -0.028971   0.121199
     10      -0.023533  -0.073588  -0.012640  -0.037238  -0.019224  -0.154977
     11      -0.051962   0.057174  -0.016332  -0.027596  -0.029794   0.033778
     12      -0.391720  -0.085164   0.003783   0.368634   0.334930   0.278332
     13      -0.122106  -0.381821  -0.172083   0.448670  -0.131023   0.355901
     14      -0.269615   0.296657   0.042573  -0.111858   0.483487  -0.077569
     15       0.391720   0.085164  -0.155123  -0.038681   0.471725  -0.278331
     16      -0.122106  -0.381822   0.434559   0.224123  -0.094932   0.355902
     17       0.269615  -0.296657   0.201478   0.295458   0.346692   0.077571
     18      -0.391720  -0.085164  -0.475925  -0.023238   0.145049   0.278332
     19       0.122106   0.381822   0.113757   0.239563  -0.421607  -0.355903
     20       0.269614  -0.296658   0.328413  -0.320964   0.192902   0.077571
     21       0.391720   0.085165  -0.317019   0.384076   0.008255  -0.278332
     22       0.122106   0.381822   0.148719   0.433228   0.195654  -0.355902
     23      -0.269615   0.296658   0.487319   0.086351   0.056108  -0.077570
                 12         13         14         15         16         17    
      0      -0.108978  -0.012776  -0.056732  -0.069389   0.230532   0.131349
      1       0.050473   0.066343  -0.013723  -0.060058   0.020290   0.131450
      2      -0.159451  -0.079119  -0.043009  -0.009331   0.137139  -0.215825
      3       0.108978   0.074053  -0.046168   0.024112   0.125305  -0.306103
      4       0.050473  -0.066343   0.013723   0.060058  -0.006845  -0.075556
      5       0.159451   0.007710  -0.032444   0.084170   0.242366   0.221628
      6       0.108978  -0.074053   0.046168  -0.024112  -0.081916   0.309758
      7      -0.050473   0.005066   0.089177  -0.014781   0.332738  -0.046958
      8      -0.159451   0.079119   0.043009   0.009332  -0.097217   0.193029
      9      -0.108978   0.012776   0.056732   0.069389  -0.187142  -0.127695
     10      -0.050473  -0.005066  -0.089177   0.014781  -0.319293   0.102853
     11       0.159451  -0.007710   0.032444  -0.084170  -0.202443  -0.244424
     12      -0.250265   0.069390   0.308138   0.376882  -0.205325   0.011213
     13       0.115909  -0.360337   0.074537   0.326198  -0.076649  -0.306652
     14      -0.366175   0.429727   0.233602   0.050683  -0.208010   0.083754
     15       0.250266  -0.402211   0.250756  -0.130964  -0.232121  -0.100188
     16       0.115910   0.360337  -0.074536  -0.326198  -0.083559  -0.359370
     17       0.366175  -0.041874   0.176219  -0.457162  -0.181213   0.195155
     18      -0.250265  -0.069390  -0.308137  -0.376881  -0.311690  -0.054755
     19      -0.115910   0.027516   0.484357  -0.080280  -0.163127  -0.313936
     20       0.366175   0.041875  -0.176219   0.457161  -0.294488   0.076472
     21       0.250265   0.402210  -0.250755   0.130964  -0.284893   0.056646
     22      -0.115910  -0.027516  -0.484356   0.080280   0.002917  -0.352087
     23      -0.366175  -0.429726  -0.233601  -0.050684  -0.267692   0.187873
                 18         19         20         21         22         23    
      0       0.206211   0.176057  -0.019481   0.036872  -0.014493  -0.031295
      1      -0.308592  -0.176057   0.017271  -0.038227   0.013766   0.031295
      2      -0.218020  -0.176057   0.017447  -0.037164   0.016233   0.031295
      3       0.059327  -0.176057   0.014676   0.033410   0.024849   0.031295
      4       0.327360  -0.176057   0.014395   0.035017   0.022708   0.031295
      5      -0.071137   0.176057  -0.016710  -0.033702  -0.023109  -0.031295
      6      -0.101294  -0.176057   0.009847   0.004258  -0.042825   0.031295
      7      -0.001088   0.176057  -0.012056  -0.005613   0.042098  -0.031295
      8       0.257311  -0.176057   0.009742   0.006928  -0.042499   0.031295
      9      -0.248178   0.176057   0.044004   0.000796  -0.003483  -0.031295
     10       0.019855   0.176057   0.043723   0.002404  -0.005624  -0.031295
     11       0.110428   0.176057   0.043899   0.003466  -0.003157  -0.031295
     12       0.307888   0.228773   0.202979  -0.422786   0.167639   0.286974
     13      -0.192791  -0.228773  -0.204477   0.421867  -0.168132  -0.286974
     14      -0.294612  -0.228773  -0.204358   0.422587  -0.166459  -0.286974
     15       0.270483  -0.228773  -0.172657  -0.384715  -0.265019  -0.286974
     16      -0.030840  -0.228774  -0.172847  -0.383625  -0.266471  -0.286974
     17      -0.257207   0.228773   0.171277   0.384517   0.266199   0.286974
     18       0.192175   0.228773  -0.495181  -0.026050   0.046559   0.286974
     19      -0.109149   0.228773  -0.495372  -0.024959   0.045107   0.286974
     20      -0.210971   0.228773  -0.495253  -0.024238   0.046780   0.286974
     21       0.229580  -0.228773  -0.119546  -0.064120   0.479216  -0.286974
     22      -0.114482   0.228773   0.118047   0.063201  -0.479710   0.286974
     23      -0.173565  -0.228773  -0.119617  -0.062309   0.479437  -0.286974


-----------
IR SPECTRUM
-----------

 Mode    freq (cm**-1)   T**2         TX         TY         TZ
-------------------------------------------------------------------
   6:       559.59    0.000000  (  0.000001   0.000002  -0.000001)
   7:       559.59    0.000000  (  0.000003   0.000005  -0.000003)
   8:       752.53   60.356462  ( -4.847418   2.694801   5.440317)
   9:       752.53   60.356462  (  3.546125   6.907451  -0.261870)
  10:       752.53   60.356459  (  4.927879  -2.319833   5.539931)
  11:       841.14    0.000000  (  0.000003  -0.000003   0.000006)
  12:       841.14    0.000000  (  0.000001  -0.000001   0.000002)
  13:       867.79    0.000000  ( -0.000003  -0.000003   0.000003)
  14:       867.79    0.000000  (  0.000004   0.000001   0.000003)
  15:       867.79    0.000000  (  0.000002   0.000003  -0.000003)
  16:      1138.43    1.974340  (  1.008139   0.312391   0.927582)
  17:      1138.43    1.974339  (  0.084900   1.298691  -0.529652)
  18:      1138.43    1.974327  ( -0.975082   0.436060   0.912905)
  19:      1444.28    0.000000  (  0.000001  -0.000002   0.000000)
  20:      3250.81   11.392094  ( -1.709813  -2.207904  -1.895730)
  21:      3250.81   11.392103  ( -2.626346   0.223770   2.108160)
  22:      3250.81   11.392087  (  1.253371  -2.543065   1.831384)
  23:      3288.08    0.000000  ( -0.000001  -0.000001  -0.000001)

The first frequency considered to be a vibration is 6
The total number of vibrations considered is 18


--------------------------
THERMOCHEMISTRY AT 298.15K
--------------------------

Temperature         ... 298.15 K
Pressure            ... 1.00 atm
Total Mass          ... 52.08 AMU

Throughout the following assumptions are being made:
  (1) The electronic state is orbitally nondegenerate
  (2) There are no thermally accessible electronically excited states
  (3) Hindered rotations indicated by low frequency modes are not
      treated as such but are treated as vibrations and this may
      cause some error
  (4) All equations used are the standard statistical mechanics
      equations for an ideal gas
  (5) All vibrations are strictly harmonic

freq.     559.59  E(vib)   ...       0.12 
freq.     559.59  E(vib)   ...       0.12 
freq.     752.53  E(vib)   ...       0.06 
freq.     752.53  E(vib)   ...       0.06 
freq.     752.53  E(vib)   ...       0.06 
freq.     841.14  E(vib)   ...       0.04 
freq.     841.14  E(vib)   ...       0.04 
freq.     867.79  E(vib)   ...       0.04 
freq.     867.79  E(vib)   ...       0.04 
freq.     867.79  E(vib)   ...       0.04 
freq.    1138.43  E(vib)   ...       0.01 
freq.    1138.43  E(vib)   ...       0.01 
freq.    1138.43  E(vib)   ...       0.01 
freq.    1444.28  E(vib)   ...       0.00 
freq.    3250.81  E(vib)   ...       0.00 
freq.    3250.81  E(vib)   ...       0.00 
freq.    3250.81  E(vib)   ...       0.00 
freq.    3288.08  E(vib)   ...       0.00 

------------
INNER ENERGY
------------

The inner energy is: U= E(el) + E(ZPE) + E(vib) + E(rot) + E(trans)
    E(el)   - is the total energy from the electronic structure calculation
              = E(kin-el) + E(nuc-el) + E(el-el) + E(nuc-nuc)
    E(ZPE)  - the the zero temperature vibrational energy from the frequency calculation
    E(vib)  - the the finite temperature correction to E(ZPE) due to population
              of excited vibrational states
    E(rot)  - is the rotational thermal energy
    E(trans)- is the translational thermal energy

Summary of contributions to the inner energy U:
Electronic energy                ...   -154.50258327 Eh
Zero point energy                ...      0.05823561 Eh      36.54 kcal/mol
Thermal vibrational correction   ...      0.00103508 Eh       0.65 kcal/mol
Thermal rotational correction    ...      0.00141627 Eh       0.89 kcal/mol
Thermal translational correction ...      0.00141627 Eh       0.89 kcal/mol
-----------------------------------------------------------------------
Total thermal energy                   -154.44048003 Eh


Summary of corrections to the electronic energy:
(perhaps to be used in another calculation)
Total thermal correction                  0.00386763 Eh       2.43 kcal/mol
Non-thermal (ZPE) correction              0.05823561 Eh      36.54 kcal/mol
-----------------------------------------------------------------------
Total correction                          0.06210324 Eh      38.97 kcal/mol


--------
ENTHALPY
--------

The enthalpy is H = U + kB*T
                kB is Boltzmann's constant
Total free energy                 ...   -154.44048003 Eh 
Thermal Enthalpy correction       ...      0.00094421 Eh       0.59 kcal/mol
-----------------------------------------------------------------------
Total Enthalpy                    ...   -154.43953582 Eh


Note: Rotational entropy computed according to Herzberg 
Infrared and Raman Spectra, Chapter V,1, Van Nostrand Reinhold, 1945 
Point Group:  Td, Symmetry Number:  12  
Rotational constants in cm-1:     0.449006     0.449006     0.449006 

Vibrational entropy computed according to the QRRHO of S. Grimme
Chem.Eur.J. 2012 18 9955


-------
ENTROPY
-------

The entropy contributions are T*S = T*(S(el)+S(vib)+S(rot)+S(trans))
     S(el)   - electronic entropy
     S(vib)  - vibrational entropy
     S(rot)  - rotational entropy
     S(trans)- translational entropy
The entropies will be listed as mutliplied by the temperature to get
units of energy

Electronic entropy                ...      0.00000000 Eh      0.00 kcal/mol
Vibrational entropy               ...      0.00133234 Eh      0.84 kcal/mol
Rotational entropy                ...      0.00829864 Eh      5.21 kcal/mol
Translational entropy             ...      0.01794717 Eh     11.26 kcal/mol
-----------------------------------------------------------------------
Final entropy term                ...      0.02757815 Eh     17.31 kcal/mol

In case the symmetry of your molecule has not been determined correctly
or in case you have a reason to use a different symmetry number we print 
out the resulting rotational entropy values for sn=1,12 :
 --------------------------------------------------------
|  sn= 1 | S(rot)=       0.01064485 Eh      6.68 kcal/mol|
|  sn= 2 | S(rot)=       0.00999039 Eh      6.27 kcal/mol|
|  sn= 3 | S(rot)=       0.00960756 Eh      6.03 kcal/mol|
|  sn= 4 | S(rot)=       0.00933593 Eh      5.86 kcal/mol|
|  sn= 5 | S(rot)=       0.00912525 Eh      5.73 kcal/mol|
|  sn= 6 | S(rot)=       0.00895310 Eh      5.62 kcal/mol|
|  sn= 7 | S(rot)=       0.00880755 Eh      5.53 kcal/mol|
|  sn= 8 | S(rot)=       0.00868148 Eh      5.45 kcal/mol|
|  sn= 9 | S(rot)=       0.00857027 Eh      5.38 kcal/mol|
|  sn=10 | S(rot)=       0.00847079 Eh      5.32 kcal/mol|
|  sn=11 | S(rot)=       0.00838080 Eh      5.26 kcal/mol|
|  sn=12 | S(rot)=       0.00829864 Eh      5.21 kcal/mol|
 --------------------------------------------------------


-------------------
GIBBS FREE ENERGY
-------------------

The Gibbs free energy is G = H - T*S

Total enthalpy                    ...   -154.43953582 Eh 
Total entropy correction          ...     -0.02757815 Eh    -17.31 kcal/mol
-----------------------------------------------------------------------
Final Gibbs free energy         ...   -154.46711398 Eh

For completeness - the Gibbs free energy minus the electronic energy
G-E(el)                           ...      0.03546929 Eh     22.26 kcal/mol


Timings for individual modules:

Sum of individual times         ...       43.087 sec (=   0.718 min)
GTO integral calculation        ...        2.815 sec (=   0.047 min)   6.5 %
SCF iterations                  ...       18.264 sec (=   0.304 min)  42.4 %
SCF Gradient evaluation         ...        5.801 sec (=   0.097 min)  13.5 %
Geometry relaxation             ...        0.174 sec (=   0.003 min)   0.4 %
Analytical frequency calculation...       16.033 sec (=   0.267 min)  37.2 %
                             ****ORCA TERMINATED NORMALLY****
TOTAL RUN TIME: 0 days 0 hours 0 minutes 44 seconds 26 msec
