
                                 *****************
                                 * O   R   C   A *
                                 *****************

           --- An Ab Initio, DFT and Semiempirical electronic structure package ---

                  #######################################################
                  #                        -***-                        #
                  #          Department of theory and spectroscopy      #
                  #               Directorship: Frank Neese             #
                  #        Max Planck Institute fuer Kohlenforschung    #
                  #                Kaiser Wilhelm Platz 1               #
                  #                 D-45470 Muelheim/Ruhr               #
                  #                      Germany                        #
                  #                                                     #
                  #                  All rights reserved                #
                  #                        -***-                        #
                  #######################################################


                         Program Version 4.2.1 -  RELEASE  -


 With contributions from (in alphabetic order):
   Daniel Aravena         : Magnetic Suceptibility
   Michael Atanasov       : Ab Initio Ligand Field Theory (pilot matlab implementation)
   Alexander A. Auer      : GIAO ZORA, VPT2
   Ute Becker             : Parallelization
   Giovanni Bistoni       : ED, misc. LED, open-shell LED, HFLD
   Martin Brehm           : Molecular dynamics
   Dmytro Bykov           : SCF Hessian
   Vijay G. Chilkuri      : MRCI spin determinant printing, contributions to CSF-ICE
   Dipayan Datta          : RHF DLPNO-CCSD density
   Achintya Kumar Dutta   : EOM-CC, STEOM-CC
   Dmitry Ganyushin       : Spin-Orbit,Spin-Spin,Magnetic field MRCI
   Miquel Garcia          : C-PCM Hessian, Gaussian charge scheme
   Yang Guo               : DLPNO-NEVPT2, CIM, IAO-localization
   Andreas Hansen         : Spin unrestricted coupled pair/coupled cluster methods
   Benjamin Helmich-Paris : CASSCF linear response (MC-RPA)
   Lee Huntington         : MR-EOM, pCC
   Robert Izsak           : Overlap fitted RIJCOSX, COSX-SCS-MP3, EOM
   Christian Kollmar      : KDIIS, OOCD, Brueckner-CCSD(T), CCSD density
   Simone Kossmann        : Meta GGA functionals, TD-DFT gradient, OOMP2, MP2 Hessian
   Martin Krupicka        : AUTO-CI
   Lucas Lang             : DCDCAS
   Dagmar Lenk            : GEPOL surface, SMD
   Dimitrios Liakos       : Extrapolation schemes; Compound Job, initial MDCI parallelization
   Dimitrios Manganas     : Further ROCIS development; embedding schemes
   Dimitrios Pantazis     : SARC Basis sets
   Taras Petrenko         : DFT Hessian,TD-DFT gradient, ASA, ECA, R-Raman, ABS, FL, XAS/XES, NRVS
   Peter Pinski           : DLPNO-MP2, DLPNO-MP2 Gradient
   Christoph Reimann      : Effective Core Potentials
   Marius Retegan         : Local ZFS, SOC
   Christoph Riplinger    : Optimizer, TS searches, QM/MM, DLPNO-CCSD(T), (RO)-DLPNO pert. Triples
   Tobias Risthaus        : Range-separated hybrids, TD-DFT gradient, RPA, STAB
   Michael Roemelt        : Original ROCIS implementation
   Masaaki Saitow         : Open-shell DLPNO-CCSD energy and density
   Barbara Sandhoefer     : DKH picture change effects
   Avijit Sen             : IP-ROCIS
   Kantharuban Sivalingam : CASSCF convergence, NEVPT2, FIC-MRCI
   Bernardo de Souza      : ESD, SOC TD-DFT
   Georgi Stoychev        : AutoAux, RI-MP2 NMR
   Willem Van den Heuvel  : Paramagnetic NMR
   Boris Wezisla          : Elementary symmetry handling
   Frank Wennmohs         : Technical directorship


 We gratefully acknowledge several colleagues who have allowed us to
 interface, adapt or use parts of their codes:
   Stefan Grimme, W. Hujo, H. Kruse,             : VdW corrections, initial TS optimization,
                  C. Bannwarth                     DFT functionals, gCP, sTDA/sTD-DF
   Ed Valeev, F. Pavosevic, A. Kumar             : LibInt (2-el integral package), F12 methods
   Garnet Chan, S. Sharma, J. Yang, R. Olivares  : DMRG
   Ulf Ekstrom                                   : XCFun DFT Library
   Mihaly Kallay                                 : mrcc  (arbitrary order and MRCC methods)
   Andreas Klamt, Michael Diedenhofen            : otool_cosmo (COSMO solvation model)
   Jiri Pittner, Ondrej Demel                    : Mk-CCSD
   Frank Weinhold                                : gennbo (NPA and NBO analysis)
   Christopher J. Cramer and Donald G. Truhlar   : smd solvation model
   Lars Goerigk                                  : TD-DFT with DH, B97 family of functionals
   V. Asgeirsson, H. Jonsson                     : NEB implementation
   FAccTs GmbH                                   : IRC, NEB, NEB-TS, Multilevel, MM, QM/MM, CI optimization
   S Lehtola, MJT Oliveira, MAL Marques          : LibXC Library


 Your calculation uses the libint2 library for the computation of 2-el integrals
 For citations please refer to: http://libint.valeyev.net

 Your ORCA version has been built with support for libXC version: 4.2.3
 For citations please refer to: https://tddft.org/programs/libxc/

 This ORCA versions uses:
   CBLAS   interface :  Fast vector & matrix operations
   LAPACKE interface :  Fast linear algebra routines
   SCALAPACK package :  Parallel linear algebra routines




***************************************
The coordinates will be read from file: init.xyz
***************************************


Your calculation utilizes the geometrical counterpoise correction gCP
Please cite in your paper:
H.Kruse, S. Grimme J.Chem.Phys., 136, (2012), 154101 
   

Your calculation utilizes the atom-pairwise dispersion correction
based on tight binding partial charges (D4)
Cite in your paper:
E.Caldeweyher, C.Bannwarth, S.Grimme, J.Chem.Phys., (2017), 147, 034112.
E.Caldeweyher, S.Ehlert, A.Hansen, H.Neugebauer, S.Grimme, J.Chem.Phys., (2018), in progress.
   

----- Orbital basis set information -----
Your calculation utilizes the basis: def2-SVP
   F. Weigend and R. Ahlrichs, Phys. Chem. Chem. Phys. 7, 3297 (2005).

----- AuxJ basis set information -----
Your calculation utilizes the auxiliary basis: def2/J
   F. Weigend, Phys. Chem. Chem. Phys. 8, 1057 (2006).

================================================================================
                                        WARNINGS
                       Please study these warnings very carefully!
================================================================================


WARNING: Geometry Optimization
  ===> : Switching off AutoStart
         For restart on a previous wavefunction, please use MOREAD

INFO   : the flag for use of LIBINT has been found!

================================================================================
                                       INPUT FILE
================================================================================
NAME = opt.inp
|  1> ! revPBE D4 gCP(DFT/TZ) def2-SVP Opt Freq TightOpt TightSCF Grid4 FinalGrid5 LargePrint
|  2> 
|  3> %pal
|  4>  nprocs 8
|  5> end
|  6> 
|  7> *xyzfile 0 1 init.xyz
|  8> 
|  9>                          ****END OF INPUT****
================================================================================

                       *****************************
                       * Geometry Optimization Run *
                       *****************************

Geometry optimization settings:
Update method            Update   .... BFGS
Choice of coordinates    CoordSys .... Z-matrix Internals
Initial Hessian          InHess   .... Almoef's Model

Convergence Tolerances:
Energy Change            TolE     ....  1.0000e-06 Eh
Max. Gradient            TolMAXG  ....  1.0000e-04 Eh/bohr
RMS Gradient             TolRMSG  ....  3.0000e-05 Eh/bohr
Max. Displacement        TolMAXD  ....  1.0000e-03 bohr
RMS Displacement         TolRMSD  ....  6.0000e-04 bohr
Strict Convergence                ....  False
------------------------------------------------------------------------------
                        ORCA OPTIMIZATION COORDINATE SETUP
------------------------------------------------------------------------------

The optimization will be done in new redundant internal coordinates
Making redundant internal coordinates   ...  (new redundants) done
Evaluating the initial hessian          ...  (Almloef) done
Evaluating the coordinates              ...  done
Calculating the B-matrix                .... done
Calculating the G-matrix                .... done
Diagonalizing the G-matrix              .... done
The first mode is                       ....   38
The number of degrees of freedom        ....   33

    -----------------------------------------------------------------
                    Redundant Internal Coordinates


    -----------------------------------------------------------------
         Definition                    Initial Value    Approx d2E/dq
    -----------------------------------------------------------------
      1. B(C   1,O   0)                  1.4164         0.507865   
      2. B(C   2,C   1)                  1.5178         0.390703   
      3. B(C   3,C   2)                  1.4936         0.427048   
      4. B(C   4,C   3)                  1.5178         0.390724   
      5. B(C   4,O   0)                  1.4164         0.507856   
      6. B(H   5,C   1)                  1.1135         0.330268   
      7. B(H   6,C   1)                  1.1104         0.334055   
      8. B(H   7,C   2)                  1.1106         0.333798   
      9. B(H   8,C   2)                  1.1150         0.328477   
     10. B(H   9,C   3)                  1.1150         0.328484   
     11. B(H  10,C   3)                  1.1107         0.333788   
     12. B(H  11,C   4)                  1.1135         0.330270   
     13. B(H  12,C   4)                  1.1104         0.334070   
     14. A(C   1,O   0,C   4)          106.0733         0.399100   
     15. A(C   2,C   1,H   6)          110.8235         0.322713   
     16. A(O   0,C   1,C   2)          107.1482         0.383654   
     17. A(H   5,C   1,H   6)          109.2334         0.283592   
     18. A(C   2,C   1,H   5)          109.7550         0.322111   
     19. A(O   0,C   1,H   5)          107.6700         0.334332   
     20. A(O   0,C   1,H   6)          112.1322         0.334966   
     21. A(C   3,C   2,H   8)          108.8857         0.326559   
     22. A(C   1,C   2,H   8)          109.2902         0.321824   
     23. A(C   3,C   2,H   7)          115.5323         0.327425   
     24. A(C   1,C   2,H   7)          114.6623         0.322673   
     25. A(C   1,C   2,C   3)           98.8364         0.374669   
     26. A(H   7,C   2,H   8)          109.1286         0.283319   
     27. A(H   9,C   3,H  10)          109.1301         0.283319   
     28. A(C   2,C   3,H  10)          115.5290         0.327423   
     29. A(C   4,C   3,H   9)          109.2908         0.321828   
     30. A(C   2,C   3,H   9)          108.8906         0.326560   
     31. A(C   4,C   3,H  10)          114.6610         0.322674   
     32. A(C   2,C   3,C   4)           98.8343         0.374673   
     33. A(H  11,C   4,H  12)          109.2326         0.283595   
     34. A(C   3,C   4,H  12)          110.8258         0.322719   
     35. A(O   0,C   4,H  12)          112.1340         0.334968   
     36. A(C   3,C   4,H  11)          109.7578         0.322114   
     37. A(O   0,C   4,H  11)          107.6679         0.334332   
     38. A(O   0,C   4,C   3)          107.1441         0.383656   
     39. D(H   5,C   1,O   0,C   4)    103.0952         0.020412   
     40. D(H   6,C   1,O   0,C   4)   -136.7198         0.020412   
     41. D(C   2,C   1,O   0,C   4)    -14.9089         0.020412   
     42. D(C   3,C   2,C   1,H   6)    161.2949         0.012134   
     43. D(H   8,C   2,C   1,H   6)     47.6251         0.012134   
     44. D(H   7,C   2,C   1,O   0)    162.1272         0.012134   
     45. D(H   7,C   2,C   1,H   6)    -75.2448         0.012134   
     46. D(H   8,C   2,C   1,O   0)    -75.0029         0.012134   
     47. D(C   3,C   2,C   1,O   0)     38.6669         0.012134   
     48. D(H   7,C   2,C   1,H   5)     45.4903         0.012134   
     49. D(H   8,C   2,C   1,H   5)    168.3601         0.012134   
     50. D(C   3,C   2,C   1,H   5)    -77.9701         0.012134   
     51. D(C   4,C   3,C   2,C   1)    -44.3613         0.014420   
     52. D(C   4,C   3,C   2,H   7)   -167.1977         0.014420   
     53. D(H  10,C   3,C   2,H   8)    -53.2062         0.014420   
     54. D(H  10,C   3,C   2,H   7)     69.9706         0.014420   
     55. D(H  10,C   3,C   2,C   1)   -167.1930         0.014420   
     56. D(H   9,C   3,C   2,H   8)   -176.3866         0.014420   
     57. D(H   9,C   3,C   2,H   7)    -53.2097         0.014420   
     58. D(H   9,C   3,C   2,C   1)     69.6266         0.014420   
     59. D(C   4,C   3,C   2,H   8)     69.6254         0.014420   
     60. D(H  11,C   4,C   3,H  10)     45.5111         0.012135   
     61. D(H  11,C   4,C   3,H   9)    168.3825         0.012135   
     62. D(H  11,C   4,C   3,C   2)    -77.9431         0.012135   
     63. D(O   0,C   4,C   3,H  10)    162.1448         0.012135   
     64. D(O   0,C   4,C   3,H   9)    -74.9838         0.012135   
     65. D(O   0,C   4,C   3,C   2)     38.6906         0.012135   
     66. D(H  12,C   4,O   0,C   1)   -136.7598         0.020412   
     67. D(H  11,C   4,O   0,C   1)    103.0565         0.020412   
     68. D(H  12,C   4,C   3,C   2)    161.3195         0.012135   
     69. D(C   3,C   4,O   0,C   1)    -14.9477         0.020412   
     70. D(H  12,C   4,C   3,H  10)    -75.2262         0.012135   
     71. D(H  12,C   4,C   3,H   9)     47.6451         0.012135   
    -----------------------------------------------------------------

Number of atoms                         .... 13
Number of degrees of freedom            .... 71

         *************************************************************
         *                GEOMETRY OPTIMIZATION CYCLE   1            *
         *************************************************************
---------------------------------
CARTESIAN COORDINATES (ANGSTROEM)
---------------------------------
  O     -1.464640   -1.230980   -0.650380
  C     -0.909930   -2.245650   -1.468270
  C      0.493590   -1.803370   -1.840060
  C      0.893970   -1.191700   -0.537620
  C     -0.378410   -0.418770   -0.242170
  H     -0.862470   -3.179250   -0.863200
  H     -1.519720   -2.429840   -2.377830
  H      1.153190   -2.616880   -2.209740
  H      0.434600   -1.001370   -2.612450
  H      1.017070   -2.001550    0.218850
  H      1.816430   -0.573640   -0.562550
  H     -0.403980    0.511850   -0.853120
  H     -0.437110   -0.151540    0.834020

----------------------------
CARTESIAN COORDINATES (A.U.)
----------------------------
  NO LB      ZA    FRAG     MASS         X           Y           Z
   0 O     8.0000    0    15.999   -2.767768   -2.326215   -1.229040
   1 C     6.0000    0    12.011   -1.719519   -4.243663   -2.774628
   2 C     6.0000    0    12.011    0.932750   -3.407875   -3.477209
   3 C     6.0000    0    12.011    1.689358   -2.251987   -1.015955
   4 C     6.0000    0    12.011   -0.715091   -0.791361   -0.457635
   5 H     1.0000    0     1.008   -1.629832   -6.007912   -1.631212
   6 H     1.0000    0     1.008   -2.871855   -4.591732   -4.493447
   7 H     1.0000    0     1.008    2.179213   -4.945187   -4.175803
   8 H     1.0000    0     1.008    0.821275   -1.892315   -4.936815
   9 H     1.0000    0     1.008    1.921984   -3.782381    0.413567
  10 H     1.0000    0     1.008    3.432555   -1.084022   -1.063065
  11 H     1.0000    0     1.008   -0.763412    0.967256   -1.612163
  12 H     1.0000    0     1.008   -0.826018   -0.286369    1.576069

--------------------------------
INTERNAL COORDINATES (ANGSTROEM)
--------------------------------
 O      0   0   0     0.000000000000     0.00000000     0.00000000
 C      1   0   0     1.416404760335     0.00000000     0.00000000
 C      2   1   0     1.517797019664   107.14822844     0.00000000
 C      3   2   1     1.493584375554    98.83642432    38.66685557
 C      1   2   3     1.416409580983   106.07331241   345.09112998
 H      2   1   3     1.113539903416   107.67002086   118.00410340
 H      2   1   3     1.110436487963   112.13222835   238.18902866
 H      3   2   1     1.110645750228   114.66232654   162.12718188
 H      3   2   1     1.115020238471   109.29023249   284.99708122
 H      4   3   2     1.115014570936   108.89057455    69.62663860
 H      4   3   2     1.110653915538   115.52900371   192.80700852
 H      5   1   2     1.113538195034   107.66794029   103.05648345
 H      5   1   2     1.110424458935   112.13402223   223.24018574

---------------------------
INTERNAL COORDINATES (A.U.)
---------------------------
 O      0   0   0     0.000000000000     0.00000000     0.00000000
 C      1   0   0     2.676617091816     0.00000000     0.00000000
 C      2   1   0     2.868220694046   107.14822844     0.00000000
 C      3   2   1     2.822465427701    98.83642432    38.66685557
 C      1   2   3     2.676626201520   106.07331241   345.09112998
 H      2   1   3     2.104285456650   107.67002086   118.00410340
 H      2   1   3     2.098420851364   112.13222835   238.18902866
 H      3   2   1     2.098816299735   114.66232654   162.12718188
 H      3   2   1     2.107082884490   109.29023249   284.99708122
 H      4   3   2     2.107072174401   108.89057455    69.62663860
 H      4   3   2     2.098831729934   115.52900371   192.80700852
 H      5   1   2     2.104282228276   107.66794029   103.05648345
 H      5   1   2     2.098398119794   112.13402223   223.24018574

---------------------
BASIS SET INFORMATION
---------------------
There are 3 groups of distinct atoms

 Group   1 Type O   : 7s4p1d contracted to 3s2p1d pattern {511/31/1}
 Group   2 Type C   : 7s4p1d contracted to 3s2p1d pattern {511/31/1}
 Group   3 Type H   : 4s1p contracted to 2s1p pattern {31/1}

Atom   0O    basis set group =>   1
Atom   1C    basis set group =>   2
Atom   2C    basis set group =>   2
Atom   3C    basis set group =>   2
Atom   4C    basis set group =>   2
Atom   5H    basis set group =>   3
Atom   6H    basis set group =>   3
Atom   7H    basis set group =>   3
Atom   8H    basis set group =>   3
Atom   9H    basis set group =>   3
Atom  10H    basis set group =>   3
Atom  11H    basis set group =>   3
Atom  12H    basis set group =>   3

-------------------------
BASIS SET IN INPUT FORMAT
-------------------------

 # Basis set for element : H 
 NewGTO H 
 S 3 
   1      13.0107010000      0.0334854848
   2       1.9622572000      0.2347218709
   3       0.4445379600      0.8137702853
 S 1 
   1       0.1219496200      1.0000000000
 P 1 
   1       0.8000000000      1.0000000000
  end;

 # Basis set for element : C 
 NewGTO C 
 S 5 
   1    1238.4016938000      0.0055173650
   2     186.2900499200      0.0410888285
   3      42.2511763460      0.1822538213
   4      11.6765579320      0.4682845944
   5       3.5930506482      0.4457581734
 S 1 
   1       0.4024514736      1.0000000000
 S 1 
   1       0.1309018267      1.0000000000
 P 3 
   1       9.4680970621      0.0568883320
   2       2.0103545142      0.3129405934
   3       0.5477100471      0.7606501651
 P 1 
   1       0.1526861379      1.0000000000
 D 1 
   1       0.8000000000      1.0000000000
  end;

 # Basis set for element : O 
 NewGTO O 
 S 5 
   1    2266.1767785000     -0.0053893504
   2     340.8701019100     -0.0402347214
   3      77.3631351670     -0.1800818421
   4      21.4796449400     -0.4682885766
   5       6.6589433124     -0.4469261716
 S 1 
   1       0.8097597567      1.0000000000
 S 1 
   1       0.2553077223      1.0000000000
 P 3 
   1      17.7215043170      0.0626302488
   2       3.8635505440      0.3333113849
   3       1.0480920883      0.7414863830
 P 1 
   1       0.2764154441      1.0000000000
 D 1 
   1       1.2000000000      1.0000000000
  end;

---------------------------------
AUXILIARY/J BASIS SET INFORMATION
---------------------------------
There are 3 groups of distinct atoms

 Group   1 Type O   : 12s5p4d2f1g contracted to 6s4p3d1f1g pattern {711111/2111/211/2/1}
 Group   2 Type C   : 12s5p4d2f1g contracted to 6s4p3d1f1g pattern {711111/2111/211/2/1}
 Group   3 Type H   : 5s2p1d contracted to 3s1p1d pattern {311/2/1}

Atom   0O    basis set group =>   1
Atom   1C    basis set group =>   2
Atom   2C    basis set group =>   2
Atom   3C    basis set group =>   2
Atom   4C    basis set group =>   2
Atom   5H    basis set group =>   3
Atom   6H    basis set group =>   3
Atom   7H    basis set group =>   3
Atom   8H    basis set group =>   3
Atom   9H    basis set group =>   3
Atom  10H    basis set group =>   3
Atom  11H    basis set group =>   3
Atom  12H    basis set group =>   3

-------------------------------------
AUXILIARY/J BASIS SET IN INPUT FORMAT
-------------------------------------

 # Auxiliary/J basis set for element : H 
 NewAuxJGTO H 
 S 3 
   1      15.6752927000      0.1007184237
   2       3.6063578000      0.3404257499
   3       1.2080016000      0.6491996172
 S 1 
   1       0.4726794000      1.0000000000
 S 1 
   1       0.2018100000      1.0000000000
 P 2 
   1       2.0281365000      0.5596620919
   2       0.5358730000      0.5596620919
 D 1 
   1       2.2165124000      1.0000000000
  end;

 # Auxiliary/J basis set for element : C 
 NewAuxJGTO C 
 S 7 
   1    1861.0916331000      0.0134602335
   2     642.9939764000      0.0299160374
   3     235.1105725000      0.1008649584
   4      90.7028894000      0.2370970548
   5      36.7794552000      0.3924037254
   6      15.6046273000      0.3195862154
   7       6.8907294000      0.0530104441
 S 1 
   1       3.1478850000     -1.0000000000
 S 1 
   1       1.4777287000      1.0000000000
 S 1 
   1       0.7076466000      1.0000000000
 S 1 
   1       0.3430122000      1.0000000000
 S 1 
   1       0.1669453000      1.0000000000
 P 2 
   1      13.5472892000     -0.6769313712
   2       5.4669419000     -0.3779500978
 P 1 
   1       2.1751721000      1.0000000000
 P 1 
   1       0.8582194000      1.0000000000
 P 1 
   1       0.3376720000      1.0000000000
 D 2 
   1       5.9287253000     -0.3533329857
   2       1.9809209000     -0.7456525731
 D 1 
   1       0.8055417000     -1.0000000000
 D 1 
   1       0.3531244000     -1.0000000000
 F 2 
   1       1.6755626000      0.6311076882
   2       0.5997536000      0.4968166032
 G 1 
   1       1.0024600000     -1.0000000000
  end;

 # Auxiliary/J basis set for element : O 
 NewAuxJGTO O 
 S 7 
   1    2876.8216605000      0.0168151159
   2    1004.7443032000      0.0340137548
   3     369.7579954000      0.1194951309
   4     142.9442404000      0.2664627624
   5      57.8366425000      0.4202764046
   6      24.3864983000      0.2765077335
   7      10.6622662000      0.0057008815
 S 1 
   1       4.8070437000     -1.0000000000
 S 1 
   1       2.2210770000      1.0000000000
 S 1 
   1       1.0447795000      1.0000000000
 S 1 
   1       0.4968425000      1.0000000000
 S 1 
   1       0.2371384000      1.0000000000
 P 2 
   1      64.2613382000     -0.2731534179
   2      16.3006076000     -0.8168011598
 P 1 
   1       4.3550542000      1.0000000000
 P 1 
   1       1.2019554000      1.0000000000
 P 1 
   1       0.3354196000      1.0000000000
 D 2 
   1       9.2146611000     -0.4661230638
   2       2.8435251000     -0.6600908911
 D 1 
   1       0.9955759000     -1.0000000000
 D 1 
   1       0.3649441000     -1.0000000000
 F 2 
   1       2.6420115000      0.5931563945
   2       0.7345613000      0.5931563945
 G 1 
   1       1.3931000000     -1.0000000000
  end;



           ************************************************************
           *        Program running with 8 parallel MPI-processes     *
           *              working on a common directory               *
           ************************************************************
------------------------------------------------------------------------------
                           ORCA GTO INTEGRAL CALCULATION
                           -- RI-GTO INTEGRALS CHOSEN --
------------------------------------------------------------------------------

                         BASIS SET STATISTICS AND STARTUP INFO

Gaussian basis set:
 # of primitive gaussian shells          ...  100
 # of primitive gaussian functions       ...  176
 # of contracted shells                  ...   54
 # of contracted basis functions         ...  110
 Highest angular momentum                ...    2
 Maximum contraction depth               ...    5
Auxiliary gaussian basis set:
 # of primitive gaussian shells          ...  184
 # of primitive gaussian functions       ...  478
 # of contracted shells                  ...  115
 # of contracted aux-basis functions     ...  333
 Highest angular momentum                ...    4
 Maximum contraction depth               ...    7
Ratio of auxiliary to basis functions    ...  3.03
Integral package used                  ... LIBINT
 One Electron integrals                  ... done
 Ordering auxiliary basis shells         ... done
 Integral threshhold             Thresh  ...  2.500e-11
 Primitive cut-off               TCut    ...  2.500e-12
 Pre-screening matrix                    ... done
 Shell pair data                         ... 
 Ordering of the shell pairs             ... done (   0.000 sec) 1480 of 1485 pairs
 Determination of significant pairs      ... done (   0.000 sec)
 Creation of shell pair data             ... done (   0.000 sec)
 Storage of shell pair data              ... done (   0.010 sec)
 Shell pair data done in (   0.010 sec)
 Computing two index integrals           ... done
 Cholesky decomposition of the V-matrix  ... done


Timings:
 Total evaluation time                   ...   0.152 sec (  0.003 min)
 One electron matrix time                ...   0.012 sec (  0.000 min) =  8.0%
 Schwartz matrix evaluation time         ...   0.101 sec (  0.002 min) = 66.1%
 Two index repulsion integral time       ...   0.004 sec (  0.000 min) =  2.3%
 Cholesky decomposition of V             ...   0.005 sec (  0.000 min) =  3.5%
 Three index repulsion integral time     ...   0.000 sec (  0.000 min) =  0.0%



           ************************************************************
           *        Program running with 8 parallel MPI-processes     *
           *              working on a common directory               *
           ************************************************************
-------------------------------------------------------------------------------
                                 ORCA SCF
-------------------------------------------------------------------------------

------------
SCF SETTINGS
------------
Hamiltonian:
 Density Functional     Method          .... DFT(GTOs)
 Exchange Functional    Exchange        .... PBE
   PBE kappa parameter   XKappa         ....  1.245000
   PBE mue parameter    XMuePBE         ....  0.219520
 Correlation Functional Correlation     .... PBE
   PBE beta parameter  CBetaPBE         ....  0.066725
 LDA part of GGA corr.  LDAOpt          .... PW91-LDA
 Gradients option       PostSCFGGA      .... off
   Density functional embedding theory  .... OFF
   NL short-range parameter             ....  3.700000
 RI-approximation to the Coulomb term is turned on
   Number of auxiliary basis functions  .... 333


General Settings:
 Integral files         IntName         .... opt
 Hartree-Fock type      HFTyp           .... RHF
 Total Charge           Charge          ....    0
 Multiplicity           Mult            ....    1
 Number of Electrons    NEL             ....   40
 Basis Dimension        Dim             ....  110
 Nuclear Repulsion      ENuc            ....    192.7151237603 Eh

Convergence Acceleration:
 DIIS                   CNVDIIS         .... on
   Start iteration      DIISMaxIt       ....    12
   Startup error        DIISStart       ....  0.200000
   # of expansion vecs  DIISMaxEq       ....     5
   Bias factor          DIISBfac        ....   1.050
   Max. coefficient     DIISMaxC        ....  10.000
 Newton-Raphson         CNVNR           .... off
 SOSCF                  CNVSOSCF        .... on
   Start iteration      SOSCFMaxIt      ....   150
   Startup grad/error   SOSCFStart      ....  0.003300
 Level Shifting         CNVShift        .... on
   Level shift para.    LevelShift      ....    0.2500
   Turn off err/grad.   ShiftErr        ....    0.0010
 Zerner damping         CNVZerner       .... off
 Static damping         CNVDamp         .... on
   Fraction old density DampFac         ....    0.7000
   Max. Damping (<1)    DampMax         ....    0.9800
   Min. Damping (>=0)   DampMin         ....    0.0000
   Turn off err/grad.   DampErr         ....    0.1000
 Fernandez-Rico         CNVRico         .... off

SCF Procedure:
 Maximum # iterations   MaxIter         ....   125
 SCF integral mode      SCFMode         .... Direct
   Integral package                     .... LIBINT
 Reset frequency        DirectResetFreq ....    20
 Integral Threshold     Thresh          ....  2.500e-11 Eh
 Primitive CutOff       TCut            ....  2.500e-12 Eh

Convergence Tolerance:
 Convergence Check Mode ConvCheckMode   .... Total+1el-Energy
 Convergence forced     ConvForced      .... 0
 Energy Change          TolE            ....  1.000e-08 Eh
 1-El. energy change                    ....  1.000e-05 Eh
 Orbital Gradient       TolG            ....  1.000e-05
 Orbital Rotation angle TolX            ....  1.000e-05
 DIIS Error             TolErr          ....  5.000e-07


Diagonalization of the overlap matrix:
Smallest eigenvalue                        ... 1.691e-03
Time for diagonalization                   ...    0.003 sec
Threshold for overlap eigenvalues          ... 1.000e-08
Number of eigenvalues below threshold      ... 0
Time for construction of square roots      ...    0.002 sec
Total time needed                          ...    0.005 sec

-------------------
DFT GRID GENERATION
-------------------

General Integration Accuracy     IntAcc      ...  4.670
Radial Grid Type                 RadialGrid  ... Gauss-Chebyshev
Angular Grid (max. acc.)         AngularGrid ... Lebedev-302
Angular grid pruning method      GridPruning ... 3 (G Style)
Weight generation scheme         WeightScheme... Becke
Basis function cutoff            BFCut       ...    1.0000e-11
Integration weight cutoff        WCut        ...    1.0000e-14
Grids for H and He will be reduced by one unit

# of grid points (after initial pruning)     ...  58212 (   0.0 sec)
# of grid points (after weights+screening)   ...  53457 (   0.0 sec)
nearest neighbour list constructed           ...    0.0 sec
Grid point re-assignment to atoms done       ...    0.0 sec
Grid point division into batches done        ...    0.2 sec
Reduced shell lists constructed in    0.3 sec

Total number of grid points                  ...    53457
Total number of batches                      ...      842
Average number of points per batch           ...       63
Average number of grid points per atom       ...     4112
Average number of shells per batch           ...    46.05 (85.27%)
Average number of basis functions per batch  ...    94.72 (86.11%)
Average number of large shells per batch     ...    39.59 (85.98%)
Average number of large basis fcns per batch ...    80.69 (85.19%)
Maximum spatial batch extension              ...  14.63, 15.19, 14.28 au
Average spatial batch extension              ...   0.22,  0.22,  0.23 au

Time for grid setup =    0.302 sec

------------------------------
INITIAL GUESS: MODEL POTENTIAL
------------------------------
Loading Hartree-Fock densities                     ... done
Calculating cut-offs                               ... done
Setting up the integral package                    ... done
Initializing the effective Hamiltonian             ... done
Starting the Coulomb interaction                   ... done (   0.0 sec)
Reading the grid                                   ... done
Mapping shells                                     ... done
Starting the XC term evaluation                    ... done (   0.1 sec)
  promolecular density results
     # of electrons  =     39.996051909
     EX              =    -31.194683074
     EC              =     -1.323742149
     EX+EC           =    -32.518425223
Transforming the Hamiltonian                       ... done (   0.0 sec)
Diagonalizing the Hamiltonian                      ... done (   0.0 sec)
Back transforming the eigenvectors                 ... done (   0.0 sec)
Now organizing SCF variables                       ... done
                      ------------------
                      INITIAL GUESS DONE (   0.5 sec)
                      ------------------
----------------------
INITIAL GUESS ORBITALS
----------------------
                      0         1         2         3         4         5   
                 -18.94845 -10.08017 -10.08014 -10.07099 -10.07098  -1.07061
                   2.00000   2.00000   2.00000   2.00000   2.00000   2.00000
                  --------  --------  --------  --------  --------  --------
  0O   1s        -0.988492 -0.000020 -0.000000 -0.000072 -0.000006 -0.255825
  0O   2s         0.044385 -0.000128 -0.000002  0.001506  0.000117 -0.522053
  0O   3s        -0.039124  0.002268  0.000031 -0.006227 -0.000483 -0.299464
  0O   1pz       -0.000407 -0.000011  0.000034  0.000004  0.000454  0.025029
  0O   1px        0.001629  0.000042 -0.000008 -0.000171  0.000192 -0.100255
  0O   1py       -0.000201 -0.000003 -0.000139 -0.000038  0.000744  0.012370
  0O   2pz        0.001872  0.000061 -0.000395  0.001196  0.001534  0.010409
  0O   2px       -0.007500 -0.000224 -0.000008 -0.005270  0.000124 -0.041698
  0O   2py        0.000925  0.000018  0.000751  0.000538  0.001435  0.005151
  0O   1dz2       0.000102  0.000070 -0.000028  0.000609 -0.000316  0.003566
  0O   1dxz       0.000047  0.000083  0.000064  0.000046  0.000753  0.001284
  0O   1dyz      -0.000103 -0.000077  0.000004 -0.001223 -0.000502 -0.006203
  0O   1dx2y2    -0.000054 -0.000229  0.000000 -0.000079  0.000504 -0.001845
  0O   1dxy      -0.000011  0.000041 -0.000055 -0.000395  0.001144 -0.001070
  1C   1s         0.000038 -0.001020 -0.000052  0.642557  0.750177  0.092186
  1C   2s        -0.000538  0.001491  0.000430  0.032846  0.039855 -0.179950
  1C   3s         0.021258 -0.015806 -0.010121 -0.016303 -0.034209  0.006525
  1C   1pz        0.000448 -0.000326 -0.000430  0.000214 -0.000115 -0.059676
  1C   1px       -0.000479  0.000962  0.000977 -0.000352  0.000002  0.019117
  1C   1py        0.000651 -0.000030  0.000345 -0.000093 -0.000841 -0.080312
  1C   2pz        0.004320 -0.000644  0.004899  0.002629 -0.001998 -0.007711
  1C   2px        0.002262 -0.005933 -0.002526  0.000717 -0.006128  0.002507
  1C   2py        0.005937 -0.001329 -0.001827  0.003387 -0.000715 -0.007419
  1C   1dz2       0.000092 -0.000443 -0.000416  0.000362  0.000361  0.000993
  1C   1dxz       0.000506 -0.000729 -0.000229  0.000659  0.000504  0.005087
  1C   1dyz      -0.000457 -0.000154 -0.000018  0.000144 -0.000339 -0.013665
  1C   1dx2y2    -0.000048  0.000669  0.000750 -0.000612 -0.000195  0.005485
  1C   1dxy       0.000530  0.000309  0.000582  0.000178 -0.000031  0.004261
  2C   1s        -0.000009 -0.689564 -0.707044 -0.000638  0.000378  0.035583
  2C   2s         0.000858 -0.036876 -0.039983 -0.000242 -0.000272 -0.066296
  2C   3s        -0.009020  0.033152  0.056736  0.001460  0.005596 -0.022896
  2C   1pz       -0.000004  0.001276 -0.000624  0.000084 -0.000266 -0.023370
  2C   1px        0.000403  0.000339 -0.000494  0.001117  0.001026  0.025168
  2C   1py        0.000388  0.000150 -0.000813  0.000526  0.000524 -0.007601
  2C   2pz       -0.001820  0.001824  0.008375 -0.001175 -0.001262 -0.006232
  2C   2px        0.004907 -0.006632 -0.003128  0.000448 -0.000886  0.012166
  2C   2py       -0.002550  0.000909  0.004591 -0.000732 -0.004622 -0.001995
  2C   1dz2       0.000053  0.000640 -0.000719  0.000376  0.000386 -0.000143
  2C   1dxz       0.000141  0.000757  0.000038  0.000323  0.000551  0.002874
  2C   1dyz       0.000137  0.000844 -0.000466  0.000289  0.000026 -0.001882
  2C   1dx2y2    -0.000143  0.000345  0.000549 -0.000808 -0.000790 -0.002314
  2C   1dxy      -0.000081  0.000988  0.000446 -0.000636 -0.000336 -0.000039
  3C   1s        -0.000009 -0.707538  0.689057 -0.000571 -0.000471  0.035585
  3C   2s         0.000855 -0.037893  0.039021 -0.000283  0.000231 -0.066301
  3C   3s        -0.008999  0.034603 -0.055865  0.002320 -0.005304 -0.022865
  3C   1pz       -0.000161 -0.001258 -0.000767 -0.000586  0.000121  0.008586
  3C   1px        0.000258 -0.000334 -0.000061  0.000923 -0.000749  0.034114
  3C   1py       -0.000469 -0.000128 -0.000871 -0.000871  0.000634  0.000277
  3C   2pz       -0.000812  0.001360  0.005735  0.000971 -0.001124 -0.000242
  3C   2px        0.005622 -0.006924  0.007432  0.001210 -0.000706  0.013744
  3C   2py        0.001245  0.000660  0.003281  0.001242 -0.004484 -0.001208
  3C   1dz2       0.000102  0.000902  0.000360  0.000415 -0.000461  0.001686
  3C   1dxz       0.000028  0.000193  0.000760  0.000384 -0.000172 -0.001114
  3C   1dyz       0.000079  0.001291  0.000082 -0.000162  0.000165 -0.001496
  3C   1dx2y2    -0.000101 -0.000178 -0.000028 -0.000467  0.000551 -0.003235
  3C   1dxy       0.000203 -0.000477  0.000730  0.001085 -0.000512  0.000631
  4C   1s         0.000038 -0.001021  0.000025  0.750126 -0.642616  0.092188
  4C   2s        -0.000539  0.001502 -0.000392  0.038576 -0.034339 -0.179947
  4C   3s         0.021254 -0.016062  0.009711 -0.021371  0.031300  0.006482
  4C   1pz       -0.000137 -0.000160  0.000048 -0.000023 -0.000057  0.039315
  4C   1px       -0.000767  0.001006 -0.000930 -0.000336 -0.000304  0.062408
  4C   1py       -0.000497 -0.000225  0.000578  0.000306 -0.000772  0.070259
  4C   2pz       -0.004528  0.003154  0.003352 -0.001735 -0.004892  0.005255
  4C   2px       -0.001426 -0.004579  0.003897 -0.002003  0.003896  0.007415
  4C   2py       -0.006042  0.002683 -0.002565 -0.002959 -0.002470  0.006206
  4C   1dz2       0.000428 -0.000702  0.000313  0.000664 -0.000500  0.006286
  4C   1dxz      -0.000189 -0.000163  0.000366  0.000184  0.000037 -0.005904
  4C   1dyz      -0.000089  0.000029 -0.000355  0.000143  0.000306 -0.008228
  4C   1dx2y2    -0.000510  0.000579 -0.000340 -0.000760  0.000208 -0.001449
  4C   1dxy      -0.000518 -0.000701  0.000774  0.000266  0.000022 -0.010847
  5H   1s        -0.001656  0.000632 -0.000558 -0.002778 -0.001805 -0.026713
  5H   2s        -0.002269  0.001263 -0.001680  0.005000  0.007019 -0.004124
  5H   1pz       -0.000183  0.000065 -0.000009  0.000870  0.001363  0.002935
  5H   1px       -0.000158 -0.000324 -0.000358  0.000071  0.000595  0.000313
  5H   1py       -0.000557 -0.000116 -0.000216 -0.001575 -0.001551 -0.004713
  6H   1s        -0.000965  0.000092  0.000692 -0.002469 -0.003227 -0.023360
  6H   2s        -0.000908  0.000031  0.001976  0.005107  0.004641 -0.007579
  6H   1pz       -0.000335  0.000139  0.000009 -0.001643 -0.001962 -0.004235
  6H   1px       -0.000025 -0.000109 -0.000156 -0.001051 -0.000960 -0.002614
  6H   1py       -0.000506 -0.000089 -0.000020 -0.000481 -0.000125 -0.001275
  7H   1s        -0.000522  0.002735  0.002348 -0.000189 -0.000676 -0.006916
  7H   2s        -0.000631 -0.004359 -0.005997 -0.000387 -0.001712 -0.003344
  7H   1pz        0.000049  0.000219  0.000541  0.000145  0.000094 -0.000672
  7H   1px       -0.000061 -0.001165 -0.001136 -0.000180 -0.000267  0.000906
  7H   1py       -0.000067  0.001663  0.001754 -0.000223 -0.000089 -0.001299
  8H   1s         0.000836  0.001379  0.001308  0.000250  0.000448 -0.011664
  8H   2s         0.000391 -0.007117 -0.007344  0.000101  0.000884  0.002284
  8H   1pz       -0.000048  0.000597  0.001461  0.000394  0.000124 -0.001986
  8H   1px        0.000209  0.000378  0.000473 -0.000343 -0.000359  0.000386
  8H   1py        0.000108 -0.001784 -0.001499  0.000076 -0.000010  0.001598
  9H   1s         0.000835  0.001413 -0.001272  0.000315 -0.000405 -0.011668
  9H   2s         0.000389 -0.007304  0.007158  0.000235 -0.000858  0.002289
  9H   1pz       -0.000048 -0.000847  0.001576 -0.000174 -0.000084  0.001669
  9H   1px        0.000177  0.000458 -0.000060 -0.000543  0.000282  0.000884
  9H   1py       -0.000156  0.001717 -0.001388  0.000043 -0.000093 -0.001754
 10H   1s        -0.000522  0.002794 -0.002277 -0.000290  0.000638 -0.006915
 10H   2s        -0.000631 -0.004512  0.005883 -0.000644  0.001631 -0.003343
 10H   1pz       -0.000019  0.000444 -0.000137 -0.000051 -0.000044  0.000102
 10H   1px       -0.000059 -0.001521  0.001587 -0.000206  0.000223  0.001385
 10H   1py        0.000082 -0.001372  0.001378  0.000287 -0.000110  0.001015
 11H   1s        -0.001656  0.000617  0.000574 -0.003022  0.001356 -0.026712
 11H   2s        -0.002269  0.001220  0.001711  0.006019 -0.006169 -0.004119
 11H   1pz        0.000203  0.000090 -0.000159 -0.001124  0.001415 -0.003014
 11H   1px        0.000076 -0.000288  0.000245  0.000055 -0.000228 -0.000010
 11H   1py        0.000567  0.000198 -0.000286  0.001767 -0.001191  0.004674
 12H   1s        -0.000964  0.000110 -0.000690 -0.002935  0.002811 -0.023362
 12H   2s        -0.000907  0.000082 -0.001975  0.005760 -0.003800 -0.007583
 12H   1pz        0.000279 -0.000076 -0.000065  0.002224 -0.001854  0.004883
 12H   1px        0.000249 -0.000140  0.000129 -0.000011 -0.000118  0.000015
 12H   1py        0.000478  0.000121 -0.000052  0.000643 -0.000133  0.001598
                      6         7         8         9        10        11   
                  -0.85392  -0.78011  -0.65555  -0.64557  -0.57333  -0.56863
                   2.00000   2.00000   2.00000   2.00000   2.00000   2.00000
                  --------  --------  --------  --------  --------  --------
  0O   1s        -0.107625 -0.000003  0.000038  0.094110  0.000027  0.050365
  0O   2s        -0.232322 -0.000006  0.000077  0.214863  0.000042  0.109053
  0O   3s        -0.142278 -0.000009  0.000103  0.124569  0.000147  0.107719
  0O   1pz       -0.004571 -0.110689 -0.091453  0.014560  0.247954  0.058757
  0O   1px        0.018363 -0.047127 -0.050087 -0.058030  0.072775 -0.236232
  0O   1py       -0.002262 -0.157999 -0.220638  0.007259  0.089592  0.029094
  0O   2pz       -0.002551 -0.053286 -0.043061  0.010372  0.129746  0.032557
  0O   2px        0.010243 -0.022863 -0.023690 -0.041422  0.036982 -0.130862
  0O   2py       -0.001269 -0.077470 -0.104862  0.005157  0.037746  0.016136
  0O   1dz2      -0.000811  0.002632  0.000621  0.000892 -0.003717  0.004852
  0O   1dxz      -0.001454 -0.005446 -0.001112 -0.000058  0.008081  0.005738
  0O   1dyz      -0.001344  0.002866  0.002069 -0.002150 -0.000973  0.002954
  0O   1dx2y2     0.003251 -0.003611 -0.002228  0.000622  0.002055 -0.011263
  0O   1dxy      -0.001201 -0.008157 -0.007419 -0.000700 -0.000598  0.003752
  1C   1s        -0.051768 -0.170157 -0.056555  0.141410 -0.005991 -0.011094
  1C   2s         0.102417  0.361673  0.127588 -0.313605  0.007701  0.023715
  1C   3s         0.029302  0.053300 -0.006652 -0.029456  0.055268  0.040937
  1C   1pz       -0.035996 -0.010081  0.106012  0.070812  0.064368 -0.101258
  1C   1px        0.103294  0.008334 -0.130171 -0.013000  0.151994 -0.139979
  1C   1py       -0.010440  0.008361 -0.009038  0.103084 -0.170801 -0.145822
  1C   2pz       -0.005334 -0.007108  0.041069  0.018401  0.036120 -0.043904
  1C   2px        0.027002  0.008212 -0.036460  0.016406  0.065534 -0.051945
  1C   2py       -0.001410  0.000594 -0.009798  0.032922 -0.044205 -0.038199
  1C   1dz2      -0.003596 -0.001693  0.003239 -0.001851  0.002647  0.003806
  1C   1dxz       0.003024 -0.007090  0.001437 -0.003806  0.005850 -0.006262
  1C   1dyz      -0.003618  0.001902  0.006592  0.004524 -0.004245 -0.008065
  1C   1dx2y2     0.006796  0.002960 -0.003530  0.000414  0.005889  0.006086
  1C   1dxy       0.009166 -0.003636 -0.007765 -0.003489  0.003699 -0.010351
  2C   1s        -0.177982 -0.089124  0.139679 -0.067967 -0.006919 -0.023502
  2C   2s         0.366496  0.190470 -0.313033  0.158132  0.020661  0.049404
  2C   3s         0.068703  0.037393 -0.021943 -0.007671 -0.058610  0.036022
  2C   1pz        0.081198 -0.024348  0.122286  0.029126  0.090326 -0.170359
  2C   1px       -0.011843 -0.071893  0.011302  0.162354  0.014540  0.160385
  2C   1py        0.030091 -0.051206  0.009832  0.063816 -0.212858 -0.093106
  2C   2pz        0.023203 -0.009624  0.046730  0.003475  0.016027 -0.051247
  2C   2px       -0.003645 -0.026425  0.008414  0.073073  0.028571  0.063675
  2C   2py        0.008771 -0.021406 -0.001211  0.019556 -0.090982 -0.048507
  2C   1dz2       0.005151 -0.004988  0.005121  0.006550  0.004848 -0.005661
  2C   1dxz       0.000076 -0.002848  0.002722  0.006068 -0.003346  0.010977
  2C   1dyz       0.005790 -0.004698  0.002255  0.002515 -0.004113 -0.003533
  2C   1dx2y2     0.000882  0.006110  0.001736 -0.003643  0.001994 -0.001436
  2C   1dxy       0.002478  0.004199  0.003624 -0.003748  0.002731  0.003657
  3C   1s        -0.177985  0.089104 -0.139748 -0.067838  0.006878 -0.023507
  3C   2s         0.366501 -0.190418  0.313185  0.157836 -0.020563  0.049413
  3C   3s         0.068659 -0.037417  0.022034 -0.007635  0.058793  0.036102
  3C   1pz       -0.064627 -0.051893  0.112755 -0.097352  0.098987  0.070979
  3C   1px       -0.054632  0.038540  0.049274  0.110833 -0.019187  0.237559
  3C   1py       -0.021861 -0.064854  0.005078 -0.097613 -0.208543  0.044246
  3C   2pz       -0.018331 -0.019520  0.045285 -0.035824  0.032688  0.013008
  3C   2px       -0.015841  0.013273  0.014166  0.056422 -0.037845  0.089362
  3C   2py       -0.006340 -0.026317 -0.001947 -0.035567 -0.082720  0.029722
  3C   1dz2       0.003065  0.004046 -0.005328  0.008008 -0.001491  0.003854
  3C   1dxz       0.004679  0.004510 -0.002446  0.002608 -0.004204 -0.009477
  3C   1dyz       0.005783  0.001297 -0.003840  0.000445  0.003050  0.000745
  3C   1dx2y2     0.001504 -0.002463 -0.000104 -0.002013 -0.001933 -0.008472
  3C   1dxy       0.000002  0.008099  0.002385  0.006187  0.005497 -0.001837
  4C   1s        -0.051787  0.170148  0.056675  0.141362  0.005948 -0.011108
  4C   2s         0.102446 -0.361653 -0.127836 -0.313496 -0.007577  0.023750
  4C   3s         0.029366 -0.053273  0.006507 -0.029498 -0.055344  0.040882
  4C   1pz       -0.016591 -0.005556  0.033976 -0.050688  0.137361  0.145848
  4C   1px        0.107499 -0.009878  0.158421 -0.067699 -0.139467 -0.039329
  4C   1py       -0.015597  0.010622 -0.044752 -0.093140 -0.134563  0.168219
  4C   2pz       -0.007904 -0.002521  0.020029 -0.021961  0.065004  0.060657
  4C   2px        0.025918 -0.010176  0.047974 -0.002086 -0.049543 -0.015338
  4C   2py       -0.005149  0.002855 -0.020206 -0.034701 -0.029847  0.046606
  4C   1dz2       0.000861  0.005630 -0.002334 -0.004108 -0.007210  0.000431
  4C   1dxz      -0.006010 -0.001283 -0.002823  0.000851  0.003724  0.000733
  4C   1dyz       0.002830  0.000573 -0.001693  0.001936  0.000276 -0.011929
  4C   1dx2y2    -0.000900 -0.006563 -0.001584  0.003639 -0.000626  0.010917
  4C   1dxy      -0.010940 -0.001404 -0.010487  0.004028  0.006416  0.000840
  5H   1s         0.026824  0.100100  0.074788 -0.139325  0.120284  0.051918
  5H   2s        -0.003168  0.014341  0.007256 -0.023161  0.006566  0.016721
  5H   1pz       -0.002700 -0.007980 -0.002709  0.009828 -0.004037 -0.004089
  5H   1px        0.001421 -0.000716 -0.002677  0.000856  0.003328 -0.002550
  5H   1py        0.003056  0.010391  0.005745 -0.009999  0.005761  0.002098
  6H   1s         0.020018  0.106942  0.039266 -0.150311 -0.057858  0.120251
  6H   2s         0.004894  0.012335  0.019736 -0.017975 -0.002099  0.005493
  6H   1pz        0.001685  0.011387  0.005313 -0.011498 -0.002764  0.007931
  6H   1px        0.003041  0.007909 -0.000395 -0.008759 -0.000847  0.004156
  6H   1py        0.000524  0.001678 -0.000333  0.000160 -0.004998 -0.000913
  7H   1s         0.076953  0.055777 -0.133144  0.074728  0.084365  0.153098
  7H   2s         0.009416  0.001018 -0.025789  0.005857 -0.001388  0.004956
  7H   1pz        0.004242  0.001734 -0.001591  0.002687  0.005046  0.001946
  7H   1px       -0.006559 -0.005237  0.007871 -0.001777 -0.004775 -0.006264
  7H   1py        0.008845  0.004876 -0.010100  0.006717  0.001274  0.009357
  8H   1s         0.084335  0.047223 -0.149300  0.061735 -0.127089  0.053839
  8H   2s         0.004360  0.007409 -0.018336  0.011902 -0.002705  0.021035
  8H   1pz        0.009247  0.003278 -0.008138  0.004586 -0.007549  0.000713
  8H   1px        0.001100 -0.000784 -0.001121  0.003794  0.000312  0.003229
  8H   1py       -0.008453 -0.005803  0.011577 -0.003793  0.003416 -0.005539
  9H   1s         0.084336 -0.047218  0.149360  0.061612  0.127167  0.053649
  9H   2s         0.004363 -0.007407  0.018327  0.011888  0.002677  0.021020
  9H   1pz       -0.009175  0.002869 -0.008387 -0.006024 -0.006730 -0.002433
  9H   1px       -0.001403  0.000859 -0.000152  0.001995 -0.002977  0.003711
  9H   1py        0.008488 -0.006006  0.011459  0.003066  0.003828  0.004677
 10H   1s         0.076952 -0.055763  0.133209  0.074590 -0.084163  0.153209
 10H   2s         0.009403 -0.001015  0.025786  0.005833  0.001391  0.004947
 10H   1pz       -0.000210 -0.001170  0.002813 -0.001172  0.002182  0.001711
 10H   1px       -0.009608  0.006404 -0.009796 -0.004296  0.006705 -0.008419
 10H   1py       -0.006847  0.003437 -0.007921 -0.005958 -0.000154 -0.007542
 11H   1s         0.026831 -0.100083 -0.074906 -0.139268 -0.120214  0.052062
 11H   2s        -0.003172 -0.014343 -0.007268 -0.023145 -0.006559  0.016748
 11H   1pz        0.001909 -0.007988 -0.003976 -0.009663 -0.002359  0.004920
 11H   1px        0.001767 -0.000700  0.002352 -0.001527 -0.003397 -0.000766
 11H   1py       -0.003449  0.010384  0.005129  0.010073  0.006585 -0.001695
 12H   1s         0.020028 -0.106945 -0.039399 -0.150276  0.058047  0.120215
 12H   2s         0.004906 -0.012334 -0.019757 -0.017965  0.002080  0.005488
 12H   1pz       -0.002869  0.013637  0.004550  0.014231 -0.002561 -0.008991
 12H   1px        0.001703 -0.001114  0.002720 -0.002214 -0.001699  0.000098
 12H   1py       -0.001111  0.002799 -0.000716  0.001202 -0.004897  0.000389
                     12        13        14        15        16        17   
                  -0.50863  -0.49322  -0.47199  -0.44674  -0.42423  -0.41272
                   2.00000   2.00000   2.00000   2.00000   2.00000   2.00000
                  --------  --------  --------  --------  --------  --------
  0O   1s        -0.000004  0.002186 -0.000025 -0.029739 -0.000010  0.066391
  0O   2s         0.000002  0.010933 -0.000055 -0.062687 -0.000027  0.144032
  0O   3s        -0.000077 -0.033029 -0.000060 -0.038937 -0.000008  0.160069
  0O   1pz       -0.017201 -0.009345 -0.307504 -0.088529  0.001277  0.086662
  0O   1px        0.041032  0.037648 -0.080939  0.354944  0.007835 -0.347484
  0O   1py        0.366907 -0.004871 -0.035185 -0.043793  0.060878  0.042909
  0O   2pz       -0.033398 -0.002650 -0.179050 -0.053198 -0.021742  0.055362
  0O   2px        0.015580  0.010823 -0.043894  0.213243 -0.002787 -0.222023
  0O   2py        0.193732 -0.001460  0.005680 -0.026319  0.021270  0.027417
  0O   1dz2       0.001264  0.006606  0.003768 -0.006032 -0.001650  0.001867
  0O   1dxz      -0.003042  0.001577 -0.008184 -0.004789  0.003406  0.000163
  0O   1dyz      -0.002153  0.002681  0.000985 -0.002106 -0.001914 -0.005081
  0O   1dx2y2     0.001762  0.006736 -0.002083  0.006234  0.002382 -0.000052
  0O   1dxy       0.010003 -0.000967  0.000621 -0.002245  0.005578 -0.001268
  1C   1s        -0.034843  0.010104  0.017976 -0.010176  0.029754  0.020089
  1C   2s         0.078402 -0.026312 -0.044230  0.023919 -0.081905 -0.045182
  1C   3s        -0.021125  0.042983 -0.038402  0.027097 -0.065795 -0.008980
  1C   1pz       -0.260782 -0.210567 -0.022608  0.126237 -0.087857 -0.056321
  1C   1px        0.046809 -0.007320  0.007246  0.063759 -0.265166  0.249167
  1C   1py       -0.055637  0.189210  0.211272  0.054799 -0.146555 -0.018649
  1C   2pz       -0.073850 -0.073341  0.008786  0.020479 -0.024976 -0.005343
  1C   2px       -0.000850  0.022146  0.000832  0.068928 -0.097454  0.073017
  1C   2py       -0.025349  0.089393  0.075065 -0.001903 -0.078605 -0.002346
  1C   1dz2      -0.003587  0.004218 -0.009539  0.001777  0.005138 -0.005991
  1C   1dxz       0.013488 -0.003269 -0.003390 -0.008480  0.011251 -0.009645
  1C   1dyz      -0.006093  0.004784  0.008605  0.007824  0.004043 -0.005663
  1C   1dx2y2    -0.001133  0.002154  0.005672 -0.010850 -0.003168  0.014161
  1C   1dxy       0.007951  0.004053 -0.013023 -0.005690 -0.001344 -0.003638
  2C   1s         0.048421 -0.007995 -0.013358  0.018786  0.018666 -0.016066
  2C   2s        -0.123920  0.025755  0.024872 -0.053131 -0.054467  0.043467
  2C   3s         0.078004 -0.026388  0.082277 -0.046123 -0.020979  0.025005
  2C   1pz        0.084848 -0.203771  0.088949 -0.240127 -0.088568  0.007742
  2C   1px       -0.121125 -0.155602  0.029144  0.021702  0.275883 -0.203905
  2C   1py       -0.019877  0.038312 -0.231361 -0.220733 -0.057735 -0.212370
  2C   2pz        0.065582 -0.094811  0.070867 -0.087937 -0.045913  0.003089
  2C   2px       -0.071806 -0.029231 -0.008965  0.022181  0.072488 -0.083535
  2C   2py        0.012130  0.015884 -0.076750 -0.048736 -0.024590 -0.108149
  2C   1dz2      -0.002009 -0.000823  0.003476 -0.010596  0.003695 -0.006705
  2C   1dxz       0.007759  0.002239 -0.001505 -0.007678 -0.000953 -0.009395
  2C   1dyz       0.002342 -0.005283  0.001605 -0.001634  0.009369  0.006238
  2C   1dx2y2     0.006481  0.005298  0.007377  0.000689 -0.009415 -0.000493
  2C   1dxy       0.005968 -0.004789 -0.009279 -0.004792 -0.010999  0.002354
  3C   1s        -0.048435 -0.007942  0.013355  0.018774 -0.018662 -0.016073
  3C   2s         0.123968  0.025619 -0.024853 -0.053107  0.054447  0.043479
  3C   3s        -0.078115 -0.026294 -0.082344 -0.046012  0.021012  0.025064
  3C   1pz        0.020391  0.254379  0.105568  0.189691  0.052565  0.075433
  3C   1px        0.138437 -0.047875 -0.036729  0.180319 -0.290442 -0.129518
  3C   1py       -0.052020 -0.012968 -0.223243  0.195877  0.012143  0.253465
  3C   2pz        0.024179  0.098282  0.063000  0.064716 -0.005693  0.029703
  3C   2px        0.094700  0.015089  0.022948  0.070818 -0.088980 -0.048131
  3C   2py       -0.008479 -0.014106 -0.080737  0.037285 -0.004678  0.124361
  3C   1dz2      -0.004845  0.002691 -0.002905 -0.012094  0.000229 -0.011929
  3C   1dxz       0.006774 -0.005514  0.000699 -0.004644 -0.006691  0.002005
  3C   1dyz      -0.007226 -0.005318  0.002037 -0.003819 -0.001265  0.005257
  3C   1dx2y2     0.000374  0.004310 -0.011157  0.003298  0.000232  0.002003
  3C   1dxy       0.005051 -0.000419 -0.004445  0.002026 -0.016294 -0.000062
  4C   1s         0.034860  0.010077 -0.017984 -0.010179 -0.029763  0.020076
  4C   2s        -0.078464 -0.026246  0.044239  0.023939  0.081923 -0.045154
  4C   3s         0.021284  0.042942  0.038475  0.027031  0.065763 -0.008900
  4C   1pz       -0.205521  0.200715 -0.028748 -0.138065 -0.192006 -0.066770
  4C   1px       -0.173600  0.048109  0.031651 -0.016415  0.152678  0.243719
  4C   1py       -0.028704 -0.194183  0.208155 -0.060814 -0.198177 -0.042175
  4C   2pz       -0.064201  0.059804  0.003856 -0.050148 -0.062655 -0.029245
  4C   2px       -0.039254  0.032489  0.020573  0.049938  0.053807  0.065551
  4C   2py       -0.020781 -0.096096  0.072583 -0.012841 -0.097270 -0.014774
  4C   1dz2      -0.007116  0.000313  0.007952 -0.007232 -0.010565 -0.007623
  4C   1dxz       0.009276  0.005398  0.007616  0.010519  0.000742 -0.005998
  4C   1dyz      -0.000723  0.005304 -0.002884  0.000856 -0.003930 -0.005366
  4C   1dx2y2     0.011037  0.002778 -0.010862 -0.001296  0.004641  0.014340
  4C   1dxy       0.006133 -0.002675 -0.011438  0.011007 -0.005651 -0.006800
  5H   1s        -0.025929 -0.211286 -0.167818  0.030463  0.021273 -0.038493
  5H   2s        -0.005307 -0.038549 -0.042274  0.002036  0.002998 -0.017298
  5H   1pz       -0.005543  0.004706  0.005279  0.002155 -0.004372  0.000295
  5H   1px        0.000764 -0.000721  0.002973  0.001670 -0.006840  0.006828
  5H   1py       -0.003282 -0.010829 -0.006908  0.003417 -0.001833 -0.002322
  6H   1s         0.180186  0.097325 -0.039990 -0.111676  0.184075 -0.115464
  6H   2s         0.042149  0.017467  0.000302 -0.036005  0.063799 -0.035614
  6H   1pz        0.006603  0.000459 -0.003088 -0.003581  0.009138 -0.008104
  6H   1px        0.008862  0.004868 -0.001965 -0.002635  0.000275  0.001566
  6H   1py        0.002041  0.005781  0.005410  0.000213 -0.000867 -0.000762
  7H   1s        -0.113834 -0.030288  0.138940  0.196005  0.191902  0.050818
  7H   2s        -0.022592 -0.009186  0.034394  0.060748  0.064112  0.010072
  7H   1pz       -0.000919 -0.004991  0.005548 -0.000708  0.002217  0.000747
  7H   1px        0.003373 -0.001431 -0.004585 -0.008703 -0.001184 -0.007273
  7H   1py       -0.007385 -0.000468  0.003323  0.005392  0.008761 -0.003857
  8H   1s        -0.098250  0.134451 -0.159297 -0.013770 -0.016636 -0.114707
  8H   2s        -0.025451  0.017523 -0.026117 -0.003842 -0.004545 -0.032862
  8H   1pz       -0.003870  0.002813 -0.007996 -0.006087 -0.002760 -0.004875
  8H   1px       -0.003977 -0.004678 -0.000700  0.000820  0.007596 -0.003720
  8H   1py        0.005389 -0.008063  0.002563 -0.005249 -0.001704  0.001247
  9H   1s         0.098432  0.134233  0.159413 -0.013838  0.016639 -0.114611
  9H   2s         0.025500  0.017454  0.026141 -0.003871  0.004545 -0.032832
  9H   1pz       -0.005578 -0.000772 -0.007548  0.004708  0.001170  0.006104
  9H   1px        0.002845 -0.003464 -0.002516  0.004725 -0.008174 -0.001215
  9H   1py        0.004556  0.009059  0.002792  0.004564  0.000242 -0.000633
 10H   1s         0.113817 -0.030374 -0.138884  0.196033 -0.191941  0.050729
 10H   2s         0.022576 -0.009204 -0.034381  0.060750 -0.064114  0.010028
 10H   1pz        0.001176  0.005046  0.002598  0.004961  0.000909  0.002489
 10H   1px       -0.005007  0.001193  0.007256 -0.008363  0.004053 -0.005686
 10H   1py       -0.006350  0.000508  0.001857 -0.003283  0.008111  0.005460
 11H   1s         0.025695 -0.211352  0.167748  0.030405 -0.021215 -0.038356
 11H   2s         0.005274 -0.038579  0.042254  0.002035 -0.002982 -0.017255
 11H   1pz       -0.004361 -0.004453  0.006443 -0.002486 -0.006925 -0.003554
 11H   1px       -0.003975 -0.000305 -0.001689 -0.000352  0.003411  0.006241
 11H   1py       -0.002685  0.010958 -0.006326 -0.003580 -0.003103  0.000700
 12H   1s        -0.180053  0.097465  0.040039 -0.111734 -0.184031 -0.115582
 12H   2s        -0.042121  0.017498 -0.000297 -0.036008 -0.063790 -0.035663
 12H   1pz        0.009820 -0.002332 -0.003955  0.004403  0.008257  0.006403
 12H   1px       -0.004060  0.002634  0.001490 -0.000645  0.003796  0.005269
 12H   1py        0.003635 -0.006713  0.004980  0.000192 -0.001298 -0.000074
                     18        19        20        21        22        23   
                  -0.40876  -0.33189  -0.02144  -0.00479  -0.00393   0.02701
                   2.00000   2.00000   0.00000   0.00000   0.00000   0.00000
                  --------  --------  --------  --------  --------  --------
  0O   1s         0.013693 -0.000003 -0.046885  0.117994  0.001012  0.000015
  0O   2s         0.033666 -0.000005 -0.104618  0.249899  0.002131  0.000051
  0O   3s        -0.011746 -0.000017 -0.351566  0.864833  0.007457 -0.000053
  0O   1pz        0.032730 -0.449697  0.025454 -0.051440  0.057479 -0.100848
  0O   1px       -0.130939 -0.069330 -0.102103  0.203874  0.013227 -0.042207
  0O   1py        0.016126  0.347830  0.012679 -0.024870 -0.023893 -0.138559
  0O   2pz        0.022437 -0.305869  0.039150 -0.059015  0.064942 -0.155747
  0O   2px       -0.089758 -0.048057 -0.156736  0.234044  0.008590 -0.063931
  0O   2py        0.011040  0.229302  0.019534 -0.028054 -0.078296 -0.203100
  0O   1dz2      -0.004313  0.002429  0.004410  0.002366  0.003210 -0.001785
  0O   1dxz      -0.001104 -0.005375  0.000903 -0.003958 -0.007070  0.003692
  0O   1dyz      -0.004947 -0.000161 -0.003410 -0.012927 -0.000210 -0.001904
  0O   1dx2y2    -0.005742 -0.000558  0.002419  0.012070 -0.000737  0.002403
  0O   1dxy       0.000151  0.003549 -0.001450 -0.006467  0.004095  0.005348
  1C   1s         0.015590 -0.001818  0.043925  0.051254  0.011372  0.103049
  1C   2s        -0.046140  0.001743 -0.130857 -0.150145 -0.001710 -0.263149
  1C   3s         0.001130  0.015570 -0.457924 -0.065107 -0.563455 -1.332382
  1C   1pz        0.141597  0.145312  0.054375 -0.167498 -0.132156  0.026060
  1C   1px        0.060676  0.022385 -0.008698  0.247772 -0.052288  0.043154
  1C   1py       -0.120084 -0.107621  0.168255 -0.154812  0.112042  0.014158
  1C   2pz        0.076224  0.006852  0.108882 -0.339518 -0.279641  0.050541
  1C   2px        0.016958  0.008241  0.022862  0.600743 -0.224525  0.066836
  1C   2py       -0.016781 -0.029130  0.399532 -0.186804  0.070480  0.039868
  1C   1dz2       0.000654 -0.021410  0.001026  0.007507 -0.001843  0.002952
  1C   1dxz      -0.008602  0.004097  0.015154  0.003283 -0.014177 -0.010013
  1C   1dyz      -0.013609 -0.013248 -0.011321  0.023402 -0.011544  0.000721
  1C   1dx2y2    -0.005092 -0.015928  0.001323 -0.019248 -0.015887 -0.003458
  1C   1dxy       0.001406 -0.008171  0.003746 -0.019957  0.006847 -0.008454
  2C   1s         0.004999  0.002411  0.069848  0.047630 -0.009872  0.068769
  2C   2s        -0.019319 -0.011784 -0.182820 -0.123630 -0.004061 -0.175512
  2C   3s        -0.004617  0.082305 -0.799941 -0.748969  0.671156 -1.078425
  2C   1pz       -0.218649 -0.020340  0.114566  0.069160 -0.104393 -0.048488
  2C   1px       -0.114515  0.056075 -0.085678  0.135945 -0.094384 -0.181349
  2C   1py        0.154508  0.056865 -0.008381 -0.001584  0.183120 -0.084831
  2C   2pz       -0.073361  0.065178  0.280136  0.152974 -0.000247 -0.252066
  2C   2px       -0.046252  0.070061 -0.119661  0.302654 -0.347638 -0.615636
  2C   2py        0.029925  0.042483 -0.053423 -0.047997  0.401622 -0.323371
  2C   1dz2       0.007044  0.000472 -0.002399 -0.005530 -0.020094  0.016602
  2C   1dxz      -0.002736 -0.005792 -0.011406  0.014771  0.004540  0.018548
  2C   1dyz      -0.018779 -0.002607 -0.000167 -0.013214  0.026482  0.001696
  2C   1dx2y2    -0.007129 -0.006441 -0.006305 -0.005124  0.001924 -0.006744
  2C   1dxy      -0.000652  0.001063 -0.019703  0.022762 -0.011772 -0.001897
  3C   1s         0.004995 -0.002433  0.069802  0.047434  0.010973 -0.068807
  3C   2s        -0.019310  0.011853 -0.182784 -0.123781  0.001154  0.175626
  3C   3s        -0.004683 -0.082221 -0.798028 -0.734789 -0.687097  1.079083
  3C   1pz        0.255262  0.004783 -0.061613 -0.121533 -0.148927 -0.122032
  3C   1px       -0.032266 -0.044481 -0.124655  0.083339  0.075596  0.113383
  3C   1py       -0.136378  0.069282  0.033891 -0.028639  0.161761 -0.121209
  3C   2pz        0.088020  0.087713 -0.194573 -0.275203 -0.189446 -0.489179
  3C   2px       -0.012461 -0.020082 -0.220821  0.191463  0.392356  0.336416
  3C   2py       -0.022664  0.053659  0.094664 -0.019697  0.309941 -0.440640
  3C   1dz2       0.003180  0.004787 -0.009957  0.005716  0.011816 -0.023036
  3C   1dxz       0.005801 -0.005649  0.003786 -0.009040  0.014469 -0.004274
  3C   1dyz      -0.018742  0.003888 -0.011507  0.001171 -0.020602 -0.001361
  3C   1dx2y2    -0.006028  0.003621  0.007219 -0.022285 -0.005694  0.008297
  3C   1dxy      -0.005452  0.000183  0.016319 -0.018424 -0.021843 -0.007150
  4C   1s         0.015584  0.001819  0.044013  0.051492 -0.010316 -0.102919
  4C   2s        -0.046139 -0.001729 -0.130973 -0.150194 -0.001396  0.262765
  4C   3s         0.001243 -0.015618 -0.460351 -0.076805  0.561096  1.331183
  4C   1pz       -0.160272  0.145035 -0.033884  0.027228 -0.147265  0.042018
  4C   1px        0.013888  0.023459 -0.071181  0.325008  0.014998 -0.021633
  4C   1py        0.110798 -0.107735 -0.158723  0.082218  0.105474  0.022166
  4C   2pz       -0.076314  0.011499 -0.083223  0.018021 -0.355795  0.072740
  4C   2px       -0.016929 -0.010588 -0.122526  0.712635  0.091603 -0.024832
  4C   2py        0.016731 -0.026795 -0.387345  0.024130  0.032660  0.050973
  4C   1dz2      -0.005461  0.012870  0.012471  0.002471  0.013590  0.005428
  4C   1dxz       0.004901  0.014909 -0.009384  0.012153 -0.011318 -0.007661
  4C   1dyz      -0.013534  0.014986 -0.005356  0.008069  0.012027  0.005671
  4C   1dx2y2    -0.003376  0.016730 -0.008001 -0.003084  0.012034 -0.005320
  4C   1dxy      -0.006268 -0.008870 -0.006132  0.033905  0.006435 -0.006659
  5H   1s         0.159394  0.219045  0.046891 -0.009811  0.104641  0.063087
  5H   2s         0.059989  0.098297  0.506726  0.107353  0.631762  0.621309
  5H   1pz       -0.001072 -0.005089  0.011179 -0.009596  0.006068  0.000669
  5H   1px        0.000924  0.002012  0.005020  0.015311 -0.002232  0.001737
  5H   1py        0.005397  0.005808 -0.002968 -0.007355 -0.006094 -0.008788
  6H   1s        -0.140458 -0.148016  0.065539  0.067379 -0.071545 -0.009789
  6H   2s        -0.037719 -0.072762  0.434738  0.226312 -0.324057  0.694782
  6H   1pz       -0.004387 -0.000061 -0.004482 -0.010258  0.002766 -0.011990
  6H   1px       -0.002183 -0.005932 -0.007639  0.012661  0.005144  0.002202
  6H   1py       -0.005235 -0.003841  0.007148 -0.011152  0.002507 -0.000667
  7H   1s        -0.109509 -0.003731  0.141663 -0.128330  0.110912 -0.026514
  7H   2s        -0.039855 -0.003706  0.645426 -0.041282  0.478558  0.461336
  7H   1pz       -0.008770 -0.002991  0.000369  0.006710 -0.003369 -0.002874
  7H   1px        0.001359 -0.000287  0.005444 -0.000741  0.003996 -0.005203
  7H   1py        0.000058  0.000774 -0.009386 -0.002225 -0.005871 -0.010005
  8H   1s         0.259627  0.052983  0.030492  0.088011 -0.178151  0.073962
  8H   2s         0.099988  0.033325  0.535222  0.512867 -0.831968  0.506596
  8H   1pz        0.006401  0.001641 -0.000944 -0.001102  0.009583 -0.012896
  8H   1px       -0.001670  0.001455 -0.007423  0.007303 -0.003112 -0.010186
  8H   1py       -0.007672 -0.002023  0.011590  0.008234 -0.005042 -0.004636
  9H   1s         0.259651 -0.052928  0.030079  0.084819  0.179787 -0.073985
  9H   2s         0.099993 -0.033344  0.532594  0.497684  0.842387 -0.506721
  9H   1pz       -0.005331  0.002240  0.004917 -0.002067  0.007308 -0.015857
  9H   1px       -0.002637 -0.000950 -0.008585  0.004773  0.006016  0.001679
  9H   1py        0.008203 -0.001724 -0.009592 -0.009623 -0.006369 -0.006109
 10H   1s        -0.109519  0.003672  0.141847 -0.126354 -0.112710  0.026498
 10H   2s        -0.039862  0.003655  0.646489 -0.032564 -0.476737 -0.461919
 10H   1pz        0.007131 -0.002821 -0.003379 -0.005699 -0.000909 -0.004377
 10H   1px        0.005211 -0.000961  0.006657 -0.003113 -0.006359  0.000825
 10H   1py       -0.000869  0.000860  0.007903  0.002798 -0.004517 -0.010742
 11H   1s         0.159420 -0.219051  0.047025 -0.007974 -0.104733 -0.063090
 11H   2s         0.059988 -0.098313  0.508833  0.119085 -0.629040 -0.621040
 11H   1pz        0.000831 -0.003908 -0.012398  0.000894  0.004663  0.001899
 11H   1px        0.000051 -0.002747 -0.000207  0.019177  0.003675 -0.003189
 11H   1py       -0.005516  0.006393  0.002388  0.003210 -0.006704 -0.008170
 12H   1s        -0.140471  0.147924  0.065497  0.066090  0.073029  0.009954
 12H   2s        -0.037715  0.072742  0.434344  0.220673  0.329740 -0.693332
 12H   1pz        0.004588 -0.002575  0.007895  0.002481  0.004756 -0.009531
 12H   1px        0.001361  0.004170 -0.006094  0.018196 -0.002234 -0.007583
 12H   1py        0.005338 -0.005092 -0.005460  0.007286  0.003574  0.000552
                     24        25        26        27        28        29   
                   0.03311   0.04542   0.05411   0.05624   0.07494   0.08234
                   0.00000   0.00000   0.00000   0.00000   0.00000   0.00000
                  --------  --------  --------  --------  --------  --------
  0O   1s         0.000015 -0.009035  0.000044 -0.006370  0.045651 -0.000032
  0O   2s         0.000013 -0.017063 -0.000015 -0.004418  0.069495 -0.000002
  0O   3s         0.000259 -0.064506  0.001391 -0.150277  0.586368 -0.000825
  0O   1pz       -0.180931  0.022418 -0.082560 -0.004805 -0.013576  0.153687
  0O   1px       -0.073452 -0.090100 -0.025282  0.017300  0.054732  0.048727
  0O   1py       -0.229500  0.011076 -0.037018 -0.002418 -0.006683  0.085528
  0O   2pz       -0.236387  0.016553 -0.068421  0.006313 -0.037980  0.235880
  0O   2px       -0.099065 -0.066840 -0.021637 -0.026760  0.152574  0.074468
  0O   2py       -0.325331  0.008161 -0.039672  0.002980 -0.018711  0.129538
  0O   1dz2      -0.002876  0.004170 -0.002823  0.012960 -0.001493  0.002267
  0O   1dxz       0.005848  0.002355  0.005734  0.004536 -0.003314 -0.005244
  0O   1dyz      -0.003991  0.005851 -0.002291 -0.002173 -0.005088 -0.001952
  0O   1dx2y2     0.004801  0.001413  0.003067  0.004317  0.006939  0.001266
  0O   1dxy       0.012317  0.001199  0.005833 -0.001437 -0.003136  0.010398
  1C   1s         0.020190 -0.095481  0.073657  0.018986  0.053028  0.015713
  1C   2s        -0.064518  0.233599 -0.184590 -0.063473 -0.131952 -0.032852
  1C   3s         0.067345  1.456944 -0.887963 -0.177419 -0.560631 -0.718467
  1C   1pz       -0.181075 -0.169141 -0.011266 -0.232440 -0.068067 -0.094752
  1C   1px       -0.056400 -0.007130 -0.015858 -0.017735  0.059526 -0.245796
  1C   1py       -0.292263  0.002377  0.010982  0.191935 -0.019351  0.069746
  1C   2pz       -0.405067 -0.461732  0.126810 -0.514747 -0.156605 -0.210671
  1C   2px       -0.181469  0.114492 -0.135879 -0.066977  0.158956 -0.916600
  1C   2py       -0.643265 -0.045691  0.102950  0.575683 -0.216973  0.183812
  1C   1dz2      -0.006176 -0.003908  0.002759  0.000399  0.000462 -0.013881
  1C   1dxz      -0.029492 -0.001527 -0.002311 -0.009773 -0.000482 -0.004419
  1C   1dyz       0.018294 -0.006392  0.002155 -0.017114  0.004336 -0.018950
  1C   1dx2y2    -0.001376 -0.004537  0.010845 -0.013454 -0.018882  0.000494
  1C   1dxy      -0.013899 -0.001908 -0.003546 -0.009285  0.015274  0.011862
  2C   1s         0.023788  0.068047 -0.088757 -0.025162 -0.019034 -0.022859
  2C   2s        -0.063786 -0.161261  0.200027  0.066329  0.058765  0.001671
  2C   3s        -0.245123 -1.194132  1.403812  0.246760  0.223897  1.515590
  2C   1pz       -0.162346  0.034257 -0.148761 -0.063435 -0.071160  0.152876
  2C   1px       -0.107184 -0.004955  0.039248  0.102620 -0.082411 -0.067620
  2C   1py       -0.123931  0.108819 -0.117882 -0.047522  0.296549 -0.180413
  2C   2pz       -0.356028  0.154147 -0.341492 -0.042957 -0.320034  0.847974
  2C   2px       -0.311476  0.252425  0.107412  0.278202 -0.270066 -0.372709
  2C   2py       -0.224145  0.380822 -0.314596 -0.216475  0.846460 -0.287319
  2C   1dz2       0.004939 -0.012632  0.013468 -0.011434  0.007411  0.005479
  2C   1dxz       0.017836 -0.002586  0.004975  0.019176 -0.003601  0.013777
  2C   1dyz       0.015982 -0.007154 -0.004861  0.000517  0.015678 -0.016898
  2C   1dx2y2    -0.013251  0.012746  0.000399  0.014261  0.010067  0.000494
  2C   1dxy       0.013204  0.001441  0.008956  0.003570 -0.008606 -0.026623
  3C   1s        -0.023781  0.067896  0.089109 -0.024004 -0.019084  0.022991
  3C   2s         0.063744 -0.160912 -0.200998  0.063748  0.058923 -0.001934
  3C   3s         0.245036 -1.190789 -1.406902  0.226891  0.224631 -1.518104
  3C   1pz       -0.186113 -0.021890 -0.106748  0.004550  0.118349  0.114239
  3C   1px       -0.011927 -0.044894 -0.131335  0.126646 -0.105674  0.087618
  3C   1py       -0.135834 -0.102673 -0.097296  0.017707 -0.273365 -0.199647
  3C   2pz       -0.446271 -0.232150 -0.233096 -0.105529  0.457243  0.593741
  3C   2px        0.050068  0.057139 -0.327007  0.304963 -0.277923  0.647292
  3C   2py       -0.268966 -0.419153 -0.263515  0.140552 -0.778856 -0.413899
  3C   1dz2      -0.011543 -0.007470 -0.012803  0.008135  0.003293 -0.016283
  3C   1dxz      -0.003761 -0.013487 -0.006935 -0.023410  0.004785  0.010884
  3C   1dyz      -0.020116 -0.002840  0.000402  0.008704  0.010142  0.024157
  3C   1dx2y2     0.019304  0.006943  0.003671  0.000399  0.016773 -0.004517
  3C   1dxy      -0.004774 -0.009415  0.009189 -0.004963  0.008447 -0.015086
  4C   1s        -0.020163 -0.095526 -0.073882  0.018013  0.053083 -0.015903
  4C   2s         0.064458  0.233750  0.185469 -0.061019 -0.132080  0.033202
  4C   3s        -0.067830  1.456876  0.889005 -0.164897 -0.561684  0.722586
  4C   1pz       -0.169363  0.153230 -0.020561  0.224395  0.031386 -0.202022
  4C   1px       -0.102584  0.071580  0.010237  0.048734  0.086956  0.182840
  4C   1py       -0.286565 -0.010189  0.010074 -0.195531  0.001536  0.016769
  4C   2pz       -0.405152  0.353421  0.037592  0.518999  0.052441 -0.622668
  4C   2px       -0.179576  0.321640  0.197871  0.052293  0.258251  0.730146
  4C   2py       -0.643382 -0.007811  0.069340 -0.572732  0.166116 -0.020398
  4C   1dz2       0.026292 -0.003895 -0.002085 -0.007178 -0.004582  0.011298
  4C   1dxz      -0.013218 -0.001638  0.001028  0.006302  0.010974  0.009129
  4C   1dyz      -0.004812 -0.007009 -0.001134 -0.022759  0.007234  0.010661
  4C   1dx2y2    -0.017879 -0.003931 -0.011687 -0.005760 -0.020262  0.008483
  4C   1dxy      -0.015116  0.000531  0.001268  0.003895 -0.002185  0.017799
  5H   1s        -0.068246 -0.007690  0.007636  0.168031  0.071450  0.095119
  5H   2s        -0.345076 -0.281838  0.434321  1.213225  0.376321  0.644543
  5H   1pz       -0.013327 -0.002852  0.008129  0.007704 -0.006326  0.000887
  5H   1px       -0.002396  0.004708  0.001790 -0.000042 -0.008215 -0.012714
  5H   1py       -0.000967  0.002327 -0.003948 -0.012689 -0.011894 -0.008872
  6H   1s        -0.156714 -0.101885  0.056912 -0.090169 -0.000886 -0.084880
  6H   2s        -0.732301 -1.103643  0.422397 -0.539545  0.223217 -0.687814
  6H   1pz        0.005708  0.010637 -0.005020  0.002074 -0.004967  0.011280
  6H   1px        0.013502  0.008182 -0.004236  0.006386  0.004220 -0.003586
  6H   1py       -0.010253  0.005864 -0.002584  0.009850 -0.011079  0.007543
  7H   1s        -0.058969  0.033816 -0.169291 -0.051957  0.062245  0.005393
  7H   2s        -0.139210  0.741230 -1.185581 -0.599746  0.861183 -0.326744
  7H   1pz       -0.005799  0.002222  0.004323  0.006725 -0.010384  0.012205
  7H   1px       -0.013316  0.013593 -0.011909 -0.001948  0.005158  0.001875
  7H   1py       -0.005448 -0.002312  0.011106  0.005587 -0.003043 -0.001585
  8H   1s        -0.022953  0.024477 -0.032215 -0.056434 -0.128568  0.131998
  8H   2s        -0.011123  0.268666 -0.566251 -0.110430 -1.183387  0.647725
  8H   1pz       -0.001519 -0.000247 -0.000555  0.006626  0.006072 -0.009481
  8H   1px       -0.001799  0.005174  0.003231 -0.007025  0.000727 -0.014221
  8H   1py        0.000434  0.003988 -0.012684  0.001001 -0.011903  0.004353
  9H   1s         0.022939  0.024453  0.032965 -0.055980 -0.128734 -0.131956
  9H   2s         0.011003  0.268049  0.567822 -0.103486 -1.184349 -0.647234
  9H   1pz       -0.002206 -0.001967  0.001764 -0.002528 -0.006404 -0.015218
  9H   1px        0.000938  0.003631 -0.005808 -0.009366  0.000537  0.008797
  9H   1py        0.000098 -0.005075 -0.011574  0.000866  0.011760  0.001504
 10H   1s         0.059018  0.033805  0.170099 -0.050006  0.062310 -0.005384
 10H   2s         0.139841  0.739948  1.194134 -0.584852  0.861454  0.326608
 10H   1pz       -0.010977 -0.008400 -0.002267 -0.004750  0.006634  0.011740
 10H   1px        0.007472  0.011135  0.014827 -0.005878  0.009915  0.003704
 10H   1py       -0.008013 -0.000764  0.007883 -0.004508  0.001181 -0.001832
 11H   1s         0.068201 -0.007711 -0.009726  0.167722  0.071439 -0.095256
 11H   2s         0.345140 -0.281847 -0.448889  1.206904  0.375852 -0.646756
 11H   1pz       -0.012830  0.000480  0.008334 -0.007431  0.008721 -0.004594
 11H   1px       -0.004342  0.004817  0.001337 -0.000672 -0.001381  0.009275
 11H   1py       -0.000725 -0.003507 -0.004043  0.012708  0.013071 -0.011618
 12H   1s         0.156726 -0.101916 -0.055831 -0.090629 -0.000978  0.084996
 12H   2s         0.732275 -1.104661 -0.416292 -0.544049  0.223730  0.688218
 12H   1pz        0.011884 -0.012871 -0.006204 -0.004295  0.001808  0.007887
 12H   1px       -0.011265  0.000725  0.000680  0.002265  0.008462  0.010029
 12H   1py       -0.007183 -0.006966 -0.003063 -0.010956  0.009532  0.005856
                     30        31        32        33        34        35   
                   0.09998   0.11678   0.12609   0.30479   0.30604   0.31780
                   0.00000   0.00000   0.00000   0.00000   0.00000   0.00000
                  --------  --------  --------  --------  --------  --------
  0O   1s         0.048349  0.000064 -0.000035  0.000067  0.012343  0.000053
  0O   2s         0.074777  0.000147 -0.000072  0.000429  0.085463  0.000180
  0O   3s         0.761767  0.000527 -0.000368 -0.002310 -0.602918  0.000412
  0O   1pz       -0.047106 -0.075640  0.097006  0.083295 -0.013880  0.123496
  0O   1px        0.189919 -0.032424  0.060124  0.013697  0.056147  0.012614
  0O   1py       -0.023094 -0.111000  0.291921 -0.059469 -0.007043 -0.147182
  0O   2pz       -0.090743 -0.208907  0.169240  0.007866  0.036885  0.091461
  0O   2px        0.365514 -0.074126  0.098255 -0.003133 -0.146850  0.003598
  0O   2py       -0.044535 -0.180211  0.455284 -0.036019  0.017800 -0.156038
  0O   1dz2      -0.001106 -0.003091 -0.001658  0.003544  0.012691  0.004124
  0O   1dxz       0.003851  0.006341  0.003755 -0.007862  0.005921 -0.008924
  0O   1dyz       0.011324 -0.003860  0.000764 -0.001167 -0.013771  0.001994
  0O   1dx2y2    -0.010131  0.004732 -0.000258  0.000048 -0.007322 -0.003186
  0O   1dxy       0.005527  0.011543 -0.005010  0.008590 -0.001514 -0.002961
  1C   1s         0.062993  0.058283 -0.021208 -0.012172  0.032505  0.014393
  1C   2s        -0.120537 -0.106774  0.045510  0.144802 -0.262072 -0.203212
  1C   3s        -1.402854 -1.922830  0.123094 -0.528586  1.283315 -0.304958
  1C   1pz       -0.074289  0.075546  0.253369 -0.011992 -0.063337  0.099489
  1C   1px       -0.310688  0.020957 -0.208120  0.209721 -0.133961 -0.125661
  1C   1py       -0.108885 -0.205200 -0.032003  0.055993 -0.146742 -0.100048
  1C   2pz       -0.284437  0.167301  0.738982 -0.185933  0.204913 -0.255250
  1C   2px       -0.848022 -0.705824 -0.559113 -0.424137  0.584932  0.315402
  1C   2py       -0.541692 -0.828611  0.052905 -0.293624  0.492402  0.428308
  1C   1dz2      -0.014658 -0.022659  0.002850 -0.018653  0.010847  0.020348
  1C   1dxz      -0.013011 -0.007613 -0.005912 -0.040638 -0.015989 -0.005023
  1C   1dyz       0.013742  0.010308 -0.017180 -0.022404 -0.019139 -0.032052
  1C   1dx2y2     0.010308  0.006654  0.010461 -0.032527 -0.030504 -0.055473
  1C   1dxy       0.001670  0.006987  0.020884  0.018644 -0.006448 -0.035265
  2C   1s        -0.043736 -0.090545  0.000651 -0.000873 -0.036002  0.044092
  2C   2s         0.080819  0.135222  0.001661  0.033912  0.385347 -0.391398
  2C   3s         0.878961  3.710053 -0.170457  0.648622 -0.972104  1.524596
  2C   1pz        0.151204  0.218175 -0.201833 -0.007742  0.325911 -0.169188
  2C   1px       -0.202130 -0.097240 -0.261038 -0.039286  0.148139  0.286560
  2C   1py       -0.062273  0.104123 -0.072146 -0.088922  0.153132  0.057791
[...]
     13       0.109095   0.067949   0.052813   0.059488   0.014290   0.002656
     14      -0.084168  -0.046209   0.075008  -0.020367  -0.016973  -0.016713
     15      -0.183344  -0.109349  -0.044164   0.272512   0.310633  -0.148609
     16      -0.265291   0.269243   0.047573  -0.014323  -0.208046   0.058341
     17      -0.217000   0.318661   0.130984  -0.131617  -0.304491   0.084798
     18       0.124843   0.225573   0.096540  -0.291753  -0.282656  -0.268948
     19       0.257016  -0.340381  -0.306113   0.100776   0.214236   0.045899
     20      -0.034637  -0.196607  -0.158096   0.197756   0.213500   0.168942
     21      -0.261420   0.167053  -0.405780   0.278080  -0.119617  -0.322780
     22      -0.146060   0.091618  -0.224482   0.163477  -0.080900  -0.207179
     23       0.164894  -0.010303  -0.209464   0.155960  -0.124457  -0.225872
     24       0.270323  -0.218943   0.150625  -0.343696   0.049534  -0.305927
     25      -0.046367  -0.094941   0.116999  -0.137668   0.108718  -0.177733
     26      -0.190093  -0.062666   0.165462  -0.032516   0.186806  -0.152979
     27       0.329827   0.137919   0.023162   0.246538  -0.074387   0.150268
     28      -0.026931  -0.140892  -0.136426  -0.213472  -0.102004  -0.233996
     29       0.041077  -0.154282  -0.206791  -0.184539  -0.178183  -0.266553
     30      -0.265669  -0.130856  -0.196213  -0.128918  -0.023657   0.124487
     31       0.210081   0.133497   0.296284   0.215874   0.094310  -0.262650
     32      -0.033841   0.068996   0.358686   0.261091   0.154798  -0.337618
     33       0.003734   0.301242  -0.115425  -0.286744   0.461035   0.179972
     34       0.287011   0.218742  -0.033242   0.058988   0.112742   0.017617
     35       0.260351   0.214341  -0.096898   0.013350   0.113371   0.002588
     36       0.064939  -0.357272   0.232798   0.355250  -0.397787   0.319581
     37      -0.279388  -0.264342   0.272008   0.016589  -0.131869  -0.026749
     38      -0.011871  -0.048224   0.078180   0.032956  -0.046218   0.022287
                 24         25         26         27         28         29    
      0       0.000421   0.015777  -0.033358  -0.001126  -0.001970  -0.004500
      1       0.000042   0.067557   0.004055  -0.001541   0.000250  -0.017388
      2      -0.000063   0.029814   0.008270  -0.003822   0.000484  -0.009410
      3      -0.014879  -0.079392   0.108040   0.005527   0.008663  -0.034078
      4       0.002727  -0.006438  -0.021639   0.002272  -0.015387  -0.043151
      5      -0.027236   0.015493  -0.049171   0.003022  -0.006300  -0.014629
      6       0.070316   0.061522  -0.001077  -0.034853  -0.035603   0.001544
      7       0.077814  -0.002589   0.019941   0.005454   0.016120   0.001585
      8       0.041240   0.014790   0.017682   0.050869   0.054617   0.001025
      9       0.023239  -0.046483  -0.013745   0.054859  -0.059296  -0.000503
     10      -0.089414   0.010890  -0.018116  -0.005687  -0.004362   0.001853
     11      -0.064512   0.041949  -0.013905   0.028655  -0.030826   0.001582
     12      -0.000761   0.073719   0.120315  -0.002918   0.013841   0.012507
     13      -0.000827  -0.025378  -0.006463   0.003337   0.012600  -0.048931
     14       0.031088  -0.022765  -0.007797   0.005127   0.000691  -0.026223
     15       0.103843   0.441064  -0.456636   0.001194   0.034662   0.282280
     16      -0.015917  -0.186825   0.131387  -0.000722   0.064282   0.177247
     17      -0.048315  -0.273480   0.201390   0.000628   0.129178   0.371939
     18      -0.140584   0.231541  -0.334108  -0.015650  -0.017028   0.074013
     19      -0.003219  -0.112171   0.071420   0.014166   0.162993   0.478577
     20       0.062134  -0.199710   0.258618   0.020382   0.006426  -0.112161
     21      -0.072242  -0.059516  -0.136458   0.107280   0.059350  -0.007716
     22      -0.026517  -0.058034  -0.080921   0.225900   0.205879  -0.007174
     23       0.042834  -0.124505   0.041278  -0.421832  -0.409936  -0.001243
     24      -0.500026  -0.181885   0.004218   0.312929   0.297659  -0.003048
     25      -0.321601  -0.114145   0.061518  -0.324960  -0.312092  -0.005799
     26      -0.298079  -0.086340   0.059982  -0.223175  -0.218328  -0.002247
     27      -0.215735   0.090040  -0.038172  -0.446870   0.425948   0.000339
     28       0.409627  -0.148205  -0.057595  -0.231804   0.221858  -0.006231
     29       0.476056  -0.154576  -0.051690  -0.033731   0.037229  -0.003119
     30      -0.075524  -0.019865  -0.117643  -0.236157   0.192918   0.004455
     31       0.044589  -0.063069   0.112405   0.268932  -0.236328  -0.008758
     32      -0.005865  -0.134393   0.021785  -0.337603   0.345961  -0.004224
     33       0.113948  -0.547401  -0.514239  -0.000721  -0.044768  -0.028818
     34      -0.011153  -0.064834  -0.011275  -0.000376  -0.063330   0.216353
     35      -0.006180  -0.026698   0.041105   0.001287  -0.126654   0.449158
     36      -0.148775  -0.315985  -0.421905   0.026406  -0.054846  -0.005457
     37       0.039094  -0.044800   0.021814   0.009286  -0.154125   0.488038
     38       0.009813  -0.062948  -0.069920   0.010017   0.011799  -0.093026
                 30         31         32         33         34         35    
      0      -0.000484   0.001132  -0.002483   0.000826  -0.000221   0.000430
      1       0.000076   0.002121   0.000344  -0.000301  -0.001414  -0.001078
      2       0.000099   0.003294   0.000682  -0.000177   0.000258   0.000344
      3      -0.024920   0.011752   0.009436  -0.023195  -0.021753  -0.034287
      4      -0.049852   0.047143   0.050852   0.003680   0.005230   0.009111
      5      -0.024549  -0.017824  -0.019704  -0.036344  -0.033548  -0.051793
      6       0.012047  -0.000042   0.000826  -0.011974  -0.011141   0.019923
      7      -0.004291  -0.003852  -0.003995  -0.013920  -0.004165   0.005404
      8      -0.014242   0.002040   0.000372   0.041007   0.025992  -0.042580
      9       0.017872   0.000052   0.001454  -0.020084   0.027124  -0.014355
     10       0.000585  -0.003992   0.003575   0.015891  -0.012837  -0.000949
     11       0.006738   0.002033  -0.000867  -0.025910   0.026059  -0.005654
     12       0.001457  -0.007700   0.005283  -0.002573   0.005040   0.001332
     13       0.052787   0.051317  -0.050899   0.000329   0.001905   0.003737
     14       0.030377  -0.013729   0.015644   0.030759  -0.049027  -0.011111
     15       0.238978  -0.018086  -0.017316  -0.011016  -0.008972  -0.015309
     16       0.176471  -0.580753  -0.612538  -0.070228  -0.076677  -0.141769
     17       0.378348   0.330647   0.342915   0.033649   0.037475   0.072768
     18       0.045844  -0.095613  -0.072060   0.283050   0.259275   0.396331
     19       0.458672   0.004949   0.004248   0.026574   0.024049   0.033739
     20      -0.099189  -0.146978  -0.119722   0.394977   0.358905   0.542495
     21      -0.043131  -0.005245  -0.016725   0.132290   0.124212  -0.214112
     22      -0.081408   0.011667   0.030317  -0.191450  -0.170785   0.294041
     23       0.112788   0.005048   0.008180  -0.041680  -0.039323   0.070342
     24      -0.083812   0.000197   0.000221   0.007121   0.002148  -0.007454
     25       0.095556   0.027937   0.013141   0.364021   0.223354  -0.356962
     26       0.069501  -0.033914  -0.020061  -0.437766  -0.265383   0.427513
     27      -0.125582  -0.009703   0.006109   0.102720  -0.105305   0.029000
     28      -0.069528   0.029556  -0.012933  -0.309083   0.328587  -0.093827
     29      -0.017172  -0.032118   0.017258   0.329300  -0.348699   0.100092
     30      -0.070394   0.010313  -0.024727   0.130454  -0.207188   0.140952
     31       0.095307   0.010675  -0.024808   0.115045  -0.173186   0.112402
     32      -0.084284   0.001288   0.002290  -0.026193   0.041214  -0.025771
     33      -0.011163   0.036727  -0.032045  -0.006552   0.009311   0.003942
     34      -0.205412  -0.608381   0.597348   0.048089  -0.092695  -0.051067
     35      -0.435067   0.329694  -0.319908  -0.018314   0.038878   0.024971
     36      -0.019993   0.015050  -0.006607   0.037857  -0.061277  -0.013841
     37      -0.461684  -0.009064   0.005326  -0.049450   0.077352   0.014380
     38       0.093476  -0.178503   0.132503  -0.344512   0.536568   0.106413
                  36         37         38    
      0       0.000742   0.000624  -0.000021
      1       0.000550  -0.000074  -0.000352
      2      -0.000463  -0.000156   0.000068
      3      -0.011454   0.000486  -0.001776
      4      -0.000534   0.004062   0.003788
      5      -0.015919  -0.002018  -0.004783
      6      -0.000410  -0.031460  -0.027771
      7       0.007015   0.056366   0.059076
      8      -0.008638  -0.003938  -0.014957
      9       0.032168  -0.038444   0.029771
     10      -0.013895  -0.048595   0.051156
     11       0.028860   0.021775  -0.029169
     12      -0.007794   0.000412   0.000183
     13      -0.002371  -0.004220   0.003473
     14       0.065156   0.001887  -0.005261
     15      -0.003856  -0.002771  -0.004402
     16      -0.015864  -0.037997  -0.042751
     17       0.006995   0.020594   0.022881
     18       0.130507   0.005220   0.024334
     19       0.012145   0.000041   0.001142
     20       0.180076   0.006607   0.032937
     21       0.010278   0.376749   0.340400
     22      -0.010006  -0.507920  -0.460209
     23      -0.004439  -0.141481  -0.128533
     24      -0.003764  -0.009552  -0.011635
     25      -0.079983  -0.160232  -0.243926
     26       0.096655   0.201817   0.308416
     27      -0.120695  -0.066577   0.095968
     28       0.364399   0.173846  -0.254871
     29      -0.385792  -0.188160   0.278839
     30      -0.243471   0.511069  -0.448387
     31      -0.201530   0.404352  -0.355474
     32       0.046679  -0.079426   0.069066
     33      -0.014217  -0.003265   0.004528
     34       0.138009   0.039328  -0.043220
     35      -0.061209  -0.019466   0.020392
     36       0.084371   0.001496  -0.005319
     37      -0.099301  -0.000957   0.004870
     38      -0.699272  -0.008983   0.040400


-----------
IR SPECTRUM
-----------

 Mode    freq (cm**-1)   T**2         TX         TY         TZ
-------------------------------------------------------------------
   6:        67.01    3.307758  (  0.243388  -1.033590   1.476555)
   7:       264.22    0.001700  (  0.038736  -0.005175  -0.013123)
   8:       564.28    0.975545  ( -0.091867  -0.975840   0.121826)
   9:       660.51    2.899388  (  1.639382  -0.205256  -0.411927)
  10:       828.04    5.949174  (  2.347618  -0.295899  -0.591867)
  11:       862.61    6.799266  (  0.686156   1.674371   1.877482)
  12:       889.05    5.019284  (  0.307819   2.217648   0.081057)
  13:       899.47   21.223503  (  4.435475  -0.550549  -1.116672)
  14:       916.03    3.246324  (  1.734777  -0.218073  -0.435106)
  15:       943.43    0.524812  (  0.194627   0.234863   0.657094)
  16:      1010.58    4.164478  (  1.962778  -0.255447  -0.496716)
  17:      1073.37  125.921373  ( -2.583987  -9.298784  -5.725121)
  18:      1131.36    0.094835  ( -0.298381   0.028805   0.070529)
  19:      1144.55    9.031298  (  0.503694   2.883345   0.681110)
  20:      1154.53    6.083831  ( -2.381190   0.266989   0.585220)
  21:      1212.17    7.761162  (  0.520213   2.614321   0.809854)
  22:      1217.42    0.164260  ( -0.395928   0.014540   0.085379)
  23:      1261.32    0.081719  ( -0.062961   0.034874  -0.276656)
  24:      1293.51    0.129278  ( -0.346814   0.037363   0.087187)
  25:      1317.33    0.630428  (  0.161692   0.728013   0.272544)
  26:      1351.42    6.051316  (  2.370677  -0.287458  -0.590400)
  27:      1415.97    3.076366  ( -0.376918   0.368621  -1.672847)
  28:      1427.93    4.325242  (  2.002462  -0.247383  -0.504171)
  29:      1455.00    2.053706  ( -0.381505  -0.775844  -1.142903)
  30:      1469.62    0.000365  (  0.018645  -0.004024  -0.001127)
  31:      2898.49  168.059742  (  1.538746  12.871903  -0.078265)
  32:      2906.08    3.760059  (  1.885864  -0.005538  -0.451162)
  33:      2977.30   22.357924  ( -4.663148   0.329765   0.710093)
  34:      2977.91   11.397935  ( -0.282976  -1.850917  -2.809264)
  35:      2990.97   77.807693  ( -2.238361   0.118612  -8.531317)
  36:      2991.19   29.418184  (  1.069316  -0.004939   5.317398)
  37:      3045.17   13.369636  ( -3.522395   0.391274   0.899599)
  38:      3052.12   35.398380  (  0.135409   5.566021  -2.097488)

The first frequency considered to be a vibration is 6
The total number of vibrations considered is 33


--------------------------
THERMOCHEMISTRY AT 298.15K
--------------------------

Temperature         ... 298.15 K
Pressure            ... 1.00 atm
Total Mass          ... 72.11 AMU

Throughout the following assumptions are being made:
  (1) The electronic state is orbitally nondegenerate
  (2) There are no thermally accessible electronically excited states
  (3) Hindered rotations indicated by low frequency modes are not
      treated as such but are treated as vibrations and this may
      cause some error
  (4) All equations used are the standard statistical mechanics
      equations for an ideal gas
  (5) All vibrations are strictly harmonic

freq.      67.01  E(vib)   ...       0.50 
freq.     264.22  E(vib)   ...       0.29 
freq.     564.28  E(vib)   ...       0.11 
freq.     660.51  E(vib)   ...       0.08 
freq.     828.04  E(vib)   ...       0.04 
freq.     862.61  E(vib)   ...       0.04 
freq.     889.05  E(vib)   ...       0.04 
freq.     899.47  E(vib)   ...       0.03 
freq.     916.03  E(vib)   ...       0.03 
freq.     943.43  E(vib)   ...       0.03 
freq.    1010.58  E(vib)   ...       0.02 
freq.    1073.37  E(vib)   ...       0.02 
freq.    1131.36  E(vib)   ...       0.01 
freq.    1144.55  E(vib)   ...       0.01 
freq.    1154.53  E(vib)   ...       0.01 
freq.    1212.17  E(vib)   ...       0.01 
freq.    1217.42  E(vib)   ...       0.01 
freq.    1261.32  E(vib)   ...       0.01 
freq.    1293.51  E(vib)   ...       0.01 
freq.    1317.33  E(vib)   ...       0.01 
freq.    1351.42  E(vib)   ...       0.01 
freq.    1415.97  E(vib)   ...       0.00 
freq.    1427.93  E(vib)   ...       0.00 
freq.    1455.00  E(vib)   ...       0.00 
freq.    1469.62  E(vib)   ...       0.00 
freq.    2898.49  E(vib)   ...       0.00 
freq.    2906.08  E(vib)   ...       0.00 
freq.    2977.30  E(vib)   ...       0.00 
freq.    2977.91  E(vib)   ...       0.00 
freq.    2990.97  E(vib)   ...       0.00 
freq.    2991.19  E(vib)   ...       0.00 
freq.    3045.17  E(vib)   ...       0.00 
freq.    3052.12  E(vib)   ...       0.00 

------------
INNER ENERGY
------------

The inner energy is: U= E(el) + E(ZPE) + E(vib) + E(rot) + E(trans)
    E(el)   - is the total energy from the electronic structure calculation
              = E(kin-el) + E(nuc-el) + E(el-el) + E(nuc-nuc)
    E(ZPE)  - the the zero temperature vibrational energy from the frequency calculation
    E(vib)  - the the finite temperature correction to E(ZPE) due to population
              of excited vibrational states
    E(rot)  - is the rotational thermal energy
    E(trans)- is the translational thermal energy

Summary of contributions to the inner energy U:
Electronic energy                ...   -232.22871855 Eh
Zero point energy                ...      0.11315649 Eh      71.01 kcal/mol
Thermal vibrational correction   ...      0.00214370 Eh       1.35 kcal/mol
Thermal rotational correction    ...      0.00141627 Eh       0.89 kcal/mol
Thermal translational correction ...      0.00141627 Eh       0.89 kcal/mol
-----------------------------------------------------------------------
Total thermal energy                   -232.11058581 Eh


Summary of corrections to the electronic energy:
(perhaps to be used in another calculation)
Total thermal correction                  0.00497625 Eh       3.12 kcal/mol
Non-thermal (ZPE) correction              0.11315649 Eh      71.01 kcal/mol
-----------------------------------------------------------------------
Total correction                          0.11813274 Eh      74.13 kcal/mol


--------
ENTHALPY
--------

The enthalpy is H = U + kB*T
                kB is Boltzmann's constant
Total free energy                 ...   -232.11058581 Eh 
Thermal Enthalpy correction       ...      0.00094421 Eh       0.59 kcal/mol
-----------------------------------------------------------------------
Total Enthalpy                    ...   -232.10964160 Eh


Note: Only C1 symmetry has been detected, increase convergence thresholds 
      if your molecule has a higher symmetry. Symmetry factor of 1.0 is   
      used for the rotational entropy correction. 
 

Note: Rotational entropy computed according to Herzberg 
Infrared and Raman Spectra, Chapter V,1, Van Nostrand Reinhold, 1945 
Point Group:  C1, Symmetry Number:   1  
Rotational constants in cm-1:     0.234070     0.230469     0.132337 

Vibrational entropy computed according to the QRRHO of S. Grimme
Chem.Eur.J. 2012 18 9955


-------
ENTROPY
-------

The entropy contributions are T*S = T*(S(el)+S(vib)+S(rot)+S(trans))
     S(el)   - electronic entropy
     S(vib)  - vibrational entropy
     S(rot)  - rotational entropy
     S(trans)- translational entropy
The entropies will be listed as mutliplied by the temperature to get
units of energy

Electronic entropy                ...      0.00000000 Eh      0.00 kcal/mol
Vibrational entropy               ...      0.00350389 Eh      2.20 kcal/mol
Rotational entropy                ...      0.01184396 Eh      7.43 kcal/mol
Translational entropy             ...      0.01840809 Eh     11.55 kcal/mol
-----------------------------------------------------------------------
Final entropy term                ...      0.03375595 Eh     21.18 kcal/mol

In case the symmetry of your molecule has not been determined correctly
or in case you have a reason to use a different symmetry number we print 
out the resulting rotational entropy values for sn=1,12 :
 --------------------------------------------------------
|  sn= 1 | S(rot)=       0.01184396 Eh      7.43 kcal/mol|
|  sn= 2 | S(rot)=       0.01118951 Eh      7.02 kcal/mol|
|  sn= 3 | S(rot)=       0.01080668 Eh      6.78 kcal/mol|
|  sn= 4 | S(rot)=       0.01053505 Eh      6.61 kcal/mol|
|  sn= 5 | S(rot)=       0.01032436 Eh      6.48 kcal/mol|
|  sn= 6 | S(rot)=       0.01015222 Eh      6.37 kcal/mol|
|  sn= 7 | S(rot)=       0.01000667 Eh      6.28 kcal/mol|
|  sn= 8 | S(rot)=       0.00988060 Eh      6.20 kcal/mol|
|  sn= 9 | S(rot)=       0.00976939 Eh      6.13 kcal/mol|
|  sn=10 | S(rot)=       0.00966991 Eh      6.07 kcal/mol|
|  sn=11 | S(rot)=       0.00957992 Eh      6.01 kcal/mol|
|  sn=12 | S(rot)=       0.00949776 Eh      5.96 kcal/mol|
 --------------------------------------------------------


-------------------
GIBBS FREE ENERGY
-------------------

The Gibbs free energy is G = H - T*S

Total enthalpy                    ...   -232.10964160 Eh 
Total entropy correction          ...     -0.03375595 Eh    -21.18 kcal/mol
-----------------------------------------------------------------------
Final Gibbs free energy         ...   -232.14339756 Eh

For completeness - the Gibbs free energy minus the electronic energy
G-E(el)                           ...      0.08532100 Eh     53.54 kcal/mol


Timings for individual modules:

Sum of individual times         ...       95.717 sec (=   1.595 min)
GTO integral calculation        ...        4.138 sec (=   0.069 min)   4.3 %
SCF iterations                  ...       33.079 sec (=   0.551 min)  34.6 %
SCF Gradient evaluation         ...       15.851 sec (=   0.264 min)  16.6 %
Geometry relaxation             ...        0.467 sec (=   0.008 min)   0.5 %
Analytical frequency calculation...       42.181 sec (=   0.703 min)  44.1 %
                             ****ORCA TERMINATED NORMALLY****
TOTAL RUN TIME: 0 days 0 hours 1 minutes 37 seconds 12 msec
