
                                 *****************
                                 * O   R   C   A *
                                 *****************

           --- An Ab Initio, DFT and Semiempirical electronic structure package ---

                  #######################################################
                  #                        -***-                        #
                  #          Department of theory and spectroscopy      #
                  #               Directorship: Frank Neese             #
                  #        Max Planck Institute fuer Kohlenforschung    #
                  #                Kaiser Wilhelm Platz 1               #
                  #                 D-45470 Muelheim/Ruhr               #
                  #                      Germany                        #
                  #                                                     #
                  #                  All rights reserved                #
                  #                        -***-                        #
                  #######################################################


                         Program Version 4.2.1 -  RELEASE  -


 With contributions from (in alphabetic order):
   Daniel Aravena         : Magnetic Suceptibility
   Michael Atanasov       : Ab Initio Ligand Field Theory (pilot matlab implementation)
   Alexander A. Auer      : GIAO ZORA, VPT2
   Ute Becker             : Parallelization
   Giovanni Bistoni       : ED, misc. LED, open-shell LED, HFLD
   Martin Brehm           : Molecular dynamics
   Dmytro Bykov           : SCF Hessian
   Vijay G. Chilkuri      : MRCI spin determinant printing, contributions to CSF-ICE
   Dipayan Datta          : RHF DLPNO-CCSD density
   Achintya Kumar Dutta   : EOM-CC, STEOM-CC
   Dmitry Ganyushin       : Spin-Orbit,Spin-Spin,Magnetic field MRCI
   Miquel Garcia          : C-PCM Hessian, Gaussian charge scheme
   Yang Guo               : DLPNO-NEVPT2, CIM, IAO-localization
   Andreas Hansen         : Spin unrestricted coupled pair/coupled cluster methods
   Benjamin Helmich-Paris : CASSCF linear response (MC-RPA)
   Lee Huntington         : MR-EOM, pCC
   Robert Izsak           : Overlap fitted RIJCOSX, COSX-SCS-MP3, EOM
   Christian Kollmar      : KDIIS, OOCD, Brueckner-CCSD(T), CCSD density
   Simone Kossmann        : Meta GGA functionals, TD-DFT gradient, OOMP2, MP2 Hessian
   Martin Krupicka        : AUTO-CI
   Lucas Lang             : DCDCAS
   Dagmar Lenk            : GEPOL surface, SMD
   Dimitrios Liakos       : Extrapolation schemes; Compound Job, initial MDCI parallelization
   Dimitrios Manganas     : Further ROCIS development; embedding schemes
   Dimitrios Pantazis     : SARC Basis sets
   Taras Petrenko         : DFT Hessian,TD-DFT gradient, ASA, ECA, R-Raman, ABS, FL, XAS/XES, NRVS
   Peter Pinski           : DLPNO-MP2, DLPNO-MP2 Gradient
   Christoph Reimann      : Effective Core Potentials
   Marius Retegan         : Local ZFS, SOC
   Christoph Riplinger    : Optimizer, TS searches, QM/MM, DLPNO-CCSD(T), (RO)-DLPNO pert. Triples
   Tobias Risthaus        : Range-separated hybrids, TD-DFT gradient, RPA, STAB
   Michael Roemelt        : Original ROCIS implementation
   Masaaki Saitow         : Open-shell DLPNO-CCSD energy and density
   Barbara Sandhoefer     : DKH picture change effects
   Avijit Sen             : IP-ROCIS
   Kantharuban Sivalingam : CASSCF convergence, NEVPT2, FIC-MRCI
   Bernardo de Souza      : ESD, SOC TD-DFT
   Georgi Stoychev        : AutoAux, RI-MP2 NMR
   Willem Van den Heuvel  : Paramagnetic NMR
   Boris Wezisla          : Elementary symmetry handling
   Frank Wennmohs         : Technical directorship


 We gratefully acknowledge several colleagues who have allowed us to
 interface, adapt or use parts of their codes:
   Stefan Grimme, W. Hujo, H. Kruse,             : VdW corrections, initial TS optimization,
                  C. Bannwarth                     DFT functionals, gCP, sTDA/sTD-DF
   Ed Valeev, F. Pavosevic, A. Kumar             : LibInt (2-el integral package), F12 methods
   Garnet Chan, S. Sharma, J. Yang, R. Olivares  : DMRG
   Ulf Ekstrom                                   : XCFun DFT Library
   Mihaly Kallay                                 : mrcc  (arbitrary order and MRCC methods)
   Andreas Klamt, Michael Diedenhofen            : otool_cosmo (COSMO solvation model)
   Jiri Pittner, Ondrej Demel                    : Mk-CCSD
   Frank Weinhold                                : gennbo (NPA and NBO analysis)
   Christopher J. Cramer and Donald G. Truhlar   : smd solvation model
   Lars Goerigk                                  : TD-DFT with DH, B97 family of functionals
   V. Asgeirsson, H. Jonsson                     : NEB implementation
   FAccTs GmbH                                   : IRC, NEB, NEB-TS, Multilevel, MM, QM/MM, CI optimization
   S Lehtola, MJT Oliveira, MAL Marques          : LibXC Library


 Your calculation uses the libint2 library for the computation of 2-el integrals
 For citations please refer to: http://libint.valeyev.net

 Your ORCA version has been built with support for libXC version: 4.2.3
 For citations please refer to: https://tddft.org/programs/libxc/

 This ORCA versions uses:
   CBLAS   interface :  Fast vector & matrix operations
   LAPACKE interface :  Fast linear algebra routines
   SCALAPACK package :  Parallel linear algebra routines




***************************************
The coordinates will be read from file: init.xyz
***************************************


Your calculation utilizes the geometrical counterpoise correction gCP
Please cite in your paper:
H.Kruse, S. Grimme J.Chem.Phys., 136, (2012), 154101 
   

Your calculation utilizes the atom-pairwise dispersion correction
based on tight binding partial charges (D4)
Cite in your paper:
E.Caldeweyher, C.Bannwarth, S.Grimme, J.Chem.Phys., (2017), 147, 034112.
E.Caldeweyher, S.Ehlert, A.Hansen, H.Neugebauer, S.Grimme, J.Chem.Phys., (2018), in progress.
   

----- Orbital basis set information -----
Your calculation utilizes the basis: def2-TZVP
   F. Weigend and R. Ahlrichs, Phys. Chem. Chem. Phys. 7, 3297 (2005).

----- AuxJ basis set information -----
Your calculation utilizes the auxiliary basis: def2/J
   F. Weigend, Phys. Chem. Chem. Phys. 8, 1057 (2006).

================================================================================
                                        WARNINGS
                       Please study these warnings very carefully!
================================================================================


WARNING: Geometry Optimization
  ===> : Switching off AutoStart
         For restart on a previous wavefunction, please use MOREAD

INFO   : the flag for use of LIBINT has been found!

================================================================================
                                       INPUT FILE
================================================================================
NAME = optts+freq.inp
|  1> ! revPBE D4 gCP(DFT/TZ) def2-TZVP OptTS Freq IRC TightOpt TightSCF Grid4 FinalGrid5
|  2> 
|  3> %geom
|  4>  ts_mode
|  5>   {B 0 4}
|  6>  end
|  7>  ts_active_atoms
|  8>   {0 1 2 4}
|  9>  end
| 10> end
| 11> 
| 12> %geom
| 13>  inhess read
| 14>  inhessname "freq.hess"
| 15> end
| 16> 
| 17> %irc
| 18>  maxiter 1000
| 19>  de_init_displ 0.5
| 20> end
| 21> 
| 22> %pal
| 23>  nprocs 4
| 24> end
| 25> 
| 26> *xyzfile 0 1 init.xyz
| 27> 
| 28>                          ****END OF INPUT****
================================================================================

                       *****************************
                       * Geometry Optimization Run *
                       *****************************

Geometry optimization settings:
Update method            Update   .... Bofill
Choice of coordinates    CoordSys .... Z-matrix Internals
Initial Hessian          InHess   .... Read

Convergence Tolerances:
Energy Change            TolE     ....  1.0000e-06 Eh
Max. Gradient            TolMAXG  ....  1.0000e-04 Eh/bohr
RMS Gradient             TolRMSG  ....  3.0000e-05 Eh/bohr
Max. Displacement        TolMAXD  ....  1.0000e-03 bohr
RMS Displacement         TolRMSD  ....  6.0000e-04 bohr
Strict Convergence                ....  False
------------------------------------------------------------------------------
                        ORCA OPTIMIZATION COORDINATE SETUP
------------------------------------------------------------------------------

The optimization will be done in new redundant internal coordinates
Making redundant internal coordinates   ...  (new redundants) done
Following TS mode number                ...    internal coordinate number:  7
TS-active-atoms for coordinate setup... 0 1 2 4 
Evaluating the initial hessian          ... (Reading Exact Hessian)...  
InHessName: freq.hess	The file <freq.hess> is opened as a .hess file
done
done
Diagonalizing the Hessian               .... done
Dimension of the hessian                .... 19
Lowest eigenvalues of the non projected Hessian:
 -0.188760299 -0.000000000 -0.000000000 -0.000000000 -0.000000000
done
Evaluating the coordinates              ...  done
Calculating the B-matrix                .... done
Calculating the G-matrix                .... done
Diagonalizing the G-matrix              .... done
The first mode is                       ....   10
The number of degrees of freedom        ....    9

    -----------------------------------------------------------------
                    Redundant Internal Coordinates


    -----------------------------------------------------------------
         Definition                    Initial Value    d2E/dq (diagonal element)
    -----------------------------------------------------------------
      1. B(O   1,C   0)                  1.2400         0.268600   
      2. B(H   2,C   0)                  1.5478         0.023386   
      3. B(H   2,O   1)                  1.3178        -0.038919   
      4. B(O   3,C   0)                  1.1583         0.538196   
      5. B(O   3,O   1)                  2.2887         0.165440   
      6. B(H   4,H   2)                  1.1787        -0.009637   
      7. B(H   4,C   0)                  1.5037         0.001497   
      8. A(O   1,C   0,H   4)          100.5041         0.020702   
      9. A(O   1,C   0,O   3)          145.2015         0.066719   
     10. A(O   3,C   0,H   4)          114.2944         0.059341   
     11. A(C   0,O   1,H   2)           74.4085         0.027340   
     12. A(O   1,H   2,H   4)          115.8153         0.027015   
     13. A(C   0,H   4,H   2)           69.2721         0.009838   
     14. D(H   2,O   1,C   0,H   4)     -0.0000         0.003323   
     15. D(H   2,O   1,C   0,O   3)    180.0000         0.022130   
     16. D(H   4,H   2,O   1,C   0)      0.0000         0.006451   
     17. D(C   0,H   4,H   2,O   1)     -0.0000         0.004653   
     18. D(H   2,H   4,C   0,O   3)   -180.0000         0.005368   
     19. D(H   2,H   4,C   0,O   1)      0.0000         0.004405   
    -----------------------------------------------------------------

Number of atoms                         .... 5
Number of degrees of freedom            .... 19

         *************************************************************
         *                GEOMETRY OPTIMIZATION CYCLE   1            *
         *************************************************************
---------------------------------
CARTESIAN COORDINATES (ANGSTROEM)
---------------------------------
  C     -0.351964    0.285247   -0.037090
  O     -0.691965   -0.897461    0.115563
  H      0.625778   -0.904700    0.117328
  O     -0.726874    1.372133   -0.177808
  H      1.145025    0.144782   -0.017992

----------------------------
CARTESIAN COORDINATES (A.U.)
----------------------------
  NO LB      ZA    FRAG     MASS         X           Y           Z
   0 C     6.0000    0    12.011   -0.665116    0.539038   -0.070090
   1 O     8.0000    0    15.999   -1.307624   -1.695956    0.218382
   2 H     1.0000    0     1.008    1.182550   -1.709636    0.221718
   3 O     8.0000    0    15.999   -1.373594    2.592956   -0.336009
   4 H     1.0000    0     1.008    2.163784    0.273598   -0.034000

--------------------------------
INTERNAL COORDINATES (ANGSTROEM)
--------------------------------
 C      0   0   0     0.000000000000     0.00000000     0.00000000
 O      1   0   0     1.240040966317     0.00000000     0.00000000
 H      2   1   0     1.317764269010    74.40852766     0.00000000
 O      1   2   3     1.158309731098   145.20151005   179.99999791
 H      3   2   1     1.178703087939   115.81531849     0.00000000

---------------------------
INTERNAL COORDINATES (A.U.)
---------------------------
 C      0   0   0     0.000000000000     0.00000000     0.00000000
 O      1   0   0     2.343337821182     0.00000000     0.00000000
 H      2   1   0     2.490213577496    74.40852766     0.00000000
 O      1   2   3     2.188888170032   145.20151005   179.99999791
 H      3   2   1     2.227426029412   115.81531849     0.00000000

---------------------
BASIS SET INFORMATION
---------------------
There are 3 groups of distinct atoms

 Group   1 Type C   : 11s6p2d1f contracted to 5s3p2d1f pattern {62111/411/11/1}
 Group   2 Type O   : 11s6p2d1f contracted to 5s3p2d1f pattern {62111/411/11/1}
 Group   3 Type H   : 5s1p contracted to 3s1p pattern {311/1}

Atom   0C    basis set group =>   1
Atom   1O    basis set group =>   2
Atom   2H    basis set group =>   3
Atom   3O    basis set group =>   2
Atom   4H    basis set group =>   3
---------------------------------
AUXILIARY/J BASIS SET INFORMATION
---------------------------------
There are 3 groups of distinct atoms

 Group   1 Type C   : 12s5p4d2f1g contracted to 6s4p3d1f1g pattern {711111/2111/211/2/1}
 Group   2 Type O   : 12s5p4d2f1g contracted to 6s4p3d1f1g pattern {711111/2111/211/2/1}
 Group   3 Type H   : 5s2p1d contracted to 3s1p1d pattern {311/2/1}

Atom   0C    basis set group =>   1
Atom   1O    basis set group =>   2
Atom   2H    basis set group =>   3
Atom   3O    basis set group =>   2
Atom   4H    basis set group =>   3


           ************************************************************
           *        Program running with 4 parallel MPI-processes     *
           *              working on a common directory               *
           ************************************************************
------------------------------------------------------------------------------
                           ORCA GTO INTEGRAL CALCULATION
                           -- RI-GTO INTEGRALS CHOSEN --
------------------------------------------------------------------------------

                         BASIS SET STATISTICS AND STARTUP INFO

Gaussian basis set:
 # of primitive gaussian shells          ...   72
 # of primitive gaussian functions       ...  154
 # of contracted shells                  ...   41
 # of contracted basis functions         ...  105
 Highest angular momentum                ...    3
 Maximum contraction depth               ...    6
Auxiliary gaussian basis set:
 # of primitive gaussian shells          ...   88
 # of primitive gaussian functions       ...  242
 # of contracted shells                  ...   55
 # of contracted aux-basis functions     ...  169
 Highest angular momentum                ...    4
 Maximum contraction depth               ...    7
Ratio of auxiliary to basis functions    ...  1.61
Integral package used                  ... LIBINT
 One Electron integrals                  ... done
 Ordering auxiliary basis shells         ... done
 Integral threshhold             Thresh  ...  2.500e-11
 Primitive cut-off               TCut    ...  2.500e-12
 Pre-screening matrix                    ... done
 Shell pair data                         ... 
 Ordering of the shell pairs             ... done (   0.000 sec) 852 of 861 pairs
 Determination of significant pairs      ... done (   0.000 sec)
 Creation of shell pair data             ... done (   0.000 sec)
 Storage of shell pair data              ... done (   0.011 sec)
 Shell pair data done in (   0.012 sec)
 Computing two index integrals           ... done
 Cholesky decomposition of the V-matrix  ... done


Timings:
 Total evaluation time                   ...   0.145 sec (  0.002 min)
 One electron matrix time                ...   0.008 sec (  0.000 min) =  5.8%
 Schwartz matrix evaluation time         ...   0.095 sec (  0.002 min) = 65.3%
 Two index repulsion integral time       ...   0.001 sec (  0.000 min) =  0.7%
 Cholesky decomposition of V             ...   0.012 sec (  0.000 min) =  8.1%
 Three index repulsion integral time     ...   0.000 sec (  0.000 min) =  0.0%



           ************************************************************
           *        Program running with 4 parallel MPI-processes     *
           *              working on a common directory               *
           ************************************************************
-------------------------------------------------------------------------------
                                 ORCA SCF
-------------------------------------------------------------------------------

------------
SCF SETTINGS
------------
Hamiltonian:
 Density Functional     Method          .... DFT(GTOs)
 Exchange Functional    Exchange        .... PBE
   PBE kappa parameter   XKappa         ....  1.245000
   PBE mue parameter    XMuePBE         ....  0.219520
 Correlation Functional Correlation     .... PBE
   PBE beta parameter  CBetaPBE         ....  0.066725
 LDA part of GGA corr.  LDAOpt          .... PW91-LDA
 Gradients option       PostSCFGGA      .... off
   Density functional embedding theory  .... OFF
   NL short-range parameter             ....  3.700000
 RI-approximation to the Coulomb term is turned on
   Number of auxiliary basis functions  .... 169


General Settings:
 Integral files         IntName         .... optts+freq
 Hartree-Fock type      HFTyp           .... RHF
 Total Charge           Charge          ....    0
 Multiplicity           Mult            ....    1
 Number of Electrons    NEL             ....   24
 Basis Dimension        Dim             ....  105
 Nuclear Repulsion      ENuc            ....     70.5098036958 Eh

Convergence Acceleration:
 DIIS                   CNVDIIS         .... on
   Start iteration      DIISMaxIt       ....    12
   Startup error        DIISStart       ....  0.200000
   # of expansion vecs  DIISMaxEq       ....     5
   Bias factor          DIISBfac        ....   1.050
   Max. coefficient     DIISMaxC        ....  10.000
 Newton-Raphson         CNVNR           .... off
 SOSCF                  CNVSOSCF        .... on
   Start iteration      SOSCFMaxIt      ....   150
   Startup grad/error   SOSCFStart      ....  0.003300
 Level Shifting         CNVShift        .... on
   Level shift para.    LevelShift      ....    0.2500
   Turn off err/grad.   ShiftErr        ....    0.0010
 Zerner damping         CNVZerner       .... off
 Static damping         CNVDamp         .... on
   Fraction old density DampFac         ....    0.7000
   Max. Damping (<1)    DampMax         ....    0.9800
   Min. Damping (>=0)   DampMin         ....    0.0000
   Turn off err/grad.   DampErr         ....    0.1000
 Fernandez-Rico         CNVRico         .... off

SCF Procedure:
 Maximum # iterations   MaxIter         ....   125
 SCF integral mode      SCFMode         .... Direct
   Integral package                     .... LIBINT
 Reset frequency        DirectResetFreq ....    20
 Integral Threshold     Thresh          ....  2.500e-11 Eh
 Primitive CutOff       TCut            ....  2.500e-12 Eh

Convergence Tolerance:
 Convergence Check Mode ConvCheckMode   .... Total+1el-Energy
 Convergence forced     ConvForced      .... 0
 Energy Change          TolE            ....  1.000e-08 Eh
 1-El. energy change                    ....  1.000e-05 Eh
 Orbital Gradient       TolG            ....  1.000e-05
 Orbital Rotation angle TolX            ....  1.000e-05
 DIIS Error             TolErr          ....  5.000e-07


Diagonalization of the overlap matrix:
Smallest eigenvalue                        ... 7.858e-04
Time for diagonalization                   ...    0.005 sec
Threshold for overlap eigenvalues          ... 1.000e-08
Number of eigenvalues below threshold      ... 0
Time for construction of square roots      ...    0.002 sec
Total time needed                          ...    0.007 sec

-------------------
DFT GRID GENERATION
-------------------

General Integration Accuracy     IntAcc      ...  4.670
Radial Grid Type                 RadialGrid  ... Gauss-Chebyshev
Angular Grid (max. acc.)         AngularGrid ... Lebedev-302
Angular grid pruning method      GridPruning ... 3 (G Style)
Weight generation scheme         WeightScheme... Becke
Basis function cutoff            BFCut       ...    1.0000e-11
Integration weight cutoff        WCut        ...    1.0000e-14
Grids for H and He will be reduced by one unit

# of grid points (after initial pruning)     ...  25424 (   0.0 sec)
# of grid points (after weights+screening)   ...  24778 (   0.0 sec)
nearest neighbour list constructed           ...    0.0 sec
Grid point re-assignment to atoms done       ...    0.0 sec
Grid point division into batches done        ...    0.1 sec
Reduced shell lists constructed in    0.1 sec

Total number of grid points                  ...    24778
Total number of batches                      ...      390
Average number of points per batch           ...       63
Average number of grid points per atom       ...     4956
Average number of shells per batch           ...    30.33 (73.98%)
Average number of basis functions per batch  ...    80.23 (76.41%)
Average number of large shells per batch     ...    27.30 (90.01%)
Average number of large basis fcns per batch ...    72.84 (90.78%)
Maximum spatial batch extension              ...  15.33, 14.89, 17.88 au
Average spatial batch extension              ...   0.78,  0.73,  0.94 au

Time for grid setup =    0.155 sec

------------------------------
INITIAL GUESS: MODEL POTENTIAL
------------------------------
Loading Hartree-Fock densities                     ... done
Calculating cut-offs                               ... done
Setting up the integral package                    ... done
Initializing the effective Hamiltonian             ... done
Starting the Coulomb interaction                   ... done (   0.0 sec)
Reading the grid                                   ... done
Mapping shells                                     ... done
Starting the XC term evaluation                    ... done (   0.1 sec)
  promolecular density results
     # of electrons  =     23.999024604
     EX              =    -22.123992397
     EC              =     -0.796282469
     EX+EC           =    -22.920274866
Transforming the Hamiltonian                       ... done (   0.0 sec)
Diagonalizing the Hamiltonian                      ... done (   0.0 sec)
Back transforming the eigenvectors                 ... done (   0.0 sec)
Now organizing SCF variables                       ... done
                      ------------------
                      INITIAL GUESS DONE (   0.3 sec)
                      ------------------
--------------
SCF ITERATIONS
--------------
ITER       Energy         Delta-E        Max-DP      RMS-DP      [F,P]     Damp
               ***  Starting incremental Fock matrix formation  ***
  0   -189.5472568477   0.000000000000 0.06186164  0.00233723  0.2497803 0.7000
  1   -189.6245212843  -0.077264436595 0.03246912  0.00125919  0.0683072 0.7000
                               ***Turning on DIIS***
  2   -189.6374744266  -0.012953142298 0.04999636  0.00138563  0.0301326 0.0000
  3   -189.6842550529  -0.046780626392 0.03156659  0.00104369  0.0335115 0.0000
  4   -189.6850733540  -0.000818301011 0.00974455  0.00034958  0.0306679 0.0000
  5   -189.6869957709  -0.001922416924 0.00499531  0.00014531  0.0108533 0.0000
  6   -189.6873064377  -0.000310666796 0.00240156  0.00006675  0.0056299 0.0000
                      *** Initiating the SOSCF procedure ***
                           *** Shutting down DIIS ***
                      *** Re-Reading the Fockian *** 
                      *** Removing any level shift *** 
ITER      Energy       Delta-E        Grad      Rot      Max-DP    RMS-DP
  7   -189.68736411  -0.0000576715  0.000572  0.000572  0.000919  0.000037
               *** Restarting incremental Fock matrix formation ***
  8   -189.68737899  -0.0000148804  0.000313  0.001076  0.001501  0.000041
  9   -189.68737631   0.0000026785  0.000584  0.000570  0.000548  0.000020
 10   -189.68737976  -0.0000034506  0.000120  0.000468  0.000272  0.000014
 11   -189.68737933   0.0000004350  0.000273  0.000315  0.000195  0.000009
 12   -189.68737984  -0.0000005150  0.000077  0.000178  0.000136  0.000006
 13   -189.68737969   0.0000001492  0.000167  0.000126  0.000099  0.000004
 14   -189.68737988  -0.0000001919  0.000003  0.000006  0.000007  0.000000
                  ***Gradient check signals convergence***
              ***Rediagonalizing the Fockian in SOSCF/NRSCF***

               *****************************************************
               *                     SUCCESS                       *
               *           SCF CONVERGED AFTER  15 CYCLES          *
               *****************************************************

Setting up the final grid:

General Integration Accuracy     IntAcc      ...  5.010
Radial Grid Type                 RadialGrid  ... Gauss-Chebyshev
Angular Grid (max. acc.)         AngularGrid ... Lebedev-434
Angular grid pruning method      GridPruning ... 3 (G Style)
Weight generation scheme         WeightScheme... Becke
Basis function cutoff            BFCut       ...    1.0000e-11
Integration weight cutoff        WCut        ...    1.0000e-14
Grids for H and He will be reduced by one unit

# of grid points (after initial pruning)     ...  45766 (   0.0 sec)
# of grid points (after weights+screening)   ...  44551 (   0.0 sec)
nearest neighbour list constructed           ...    0.0 sec
Grid point re-assignment to atoms done       ...    0.0 sec
Grid point division into batches done        ...    0.4 sec
Reduced shell lists constructed in    0.4 sec

Total number of grid points                  ...    44551
Total number of batches                      ...      697
Average number of points per batch           ...       63
Average number of grid points per atom       ...     8910
Average number of shells per batch           ...    29.82 (72.74%)
Average number of basis functions per batch  ...    79.02 (75.25%)
Average number of large shells per batch     ...    26.79 (89.83%)
Average number of large basis fcns per batch ...    71.73 (90.78%)
Maximum spatial batch extension              ...  17.05, 17.34, 19.91 au
Average spatial batch extension              ...   0.67,  0.65,  0.73 au

Final grid set up in    0.5 sec
Final integration                            ... done (   0.1 sec)
Change in XC energy                          ...     0.000006047
Integrated number of electrons               ...    24.000000386
Previous integrated no of electrons          ...    23.999996889

----------------
TOTAL SCF ENERGY
----------------

Total Energy       :         -189.68737384 Eh           -5161.65586 eV

Components:
Nuclear Repulsion  :           70.50980370 Eh            1918.66930 eV
Electronic Energy  :         -260.19717753 Eh           -7080.32516 eV
One Electron Energy:         -398.26282974 Eh          -10837.28255 eV
Two Electron Energy:          138.06565221 Eh            3756.95740 eV

Virial components:
Potential Energy   :         -378.79928631 Eh          -10307.65261 eV
Kinetic Energy     :          189.11191247 Eh            5145.99676 eV
Virial Ratio       :            2.00304297


DFT components:
N(Alpha)           :       12.000000192851 electrons
N(Beta)            :       12.000000192851 electrons
N(Total)           :       24.000000385702 electrons
E(X)               :      -22.391557272736 Eh       
E(C)               :       -0.803396039024 Eh       
E(XC)              :      -23.194953311760 Eh       
DFET-embed. en.    :        0.000000000000 Eh       

---------------
SCF CONVERGENCE
---------------

  Last Energy change         ...    1.7004e-09  Tolerance :   1.0000e-08
  Last MAX-Density change    ...    3.3863e-06  Tolerance :   1.0000e-07
  Last RMS-Density change    ...    1.5432e-07  Tolerance :   5.0000e-09
  Last Orbital Gradient      ...    2.3521e-06  Tolerance :   1.0000e-05
  Last Orbital Rotation      ...    2.9419e-06  Tolerance :   1.0000e-05

             **** THE GBW FILE WAS UPDATED (optts+freq.gbw) ****
             **** DENSITY FILE WAS UPDATED (optts+freq.scfp) ****
             **** ENERGY FILE WAS UPDATED (optts+freq.en.tmp) ****
             **** THE GBW FILE WAS UPDATED (optts+freq.gbw) ****
             **** DENSITY FILE WAS UPDATED (optts+freq.scfp) ****
----------------
ORBITAL ENERGIES
----------------

  NO   OCC          E(Eh)            E(eV) 
   0   2.0000     -18.827447      -512.3209 
   1   2.0000     -18.821324      -512.1543 
   2   2.0000     -10.077916      -274.2340 
   3   2.0000      -1.066385       -29.0178 
   4   2.0000      -1.009369       -27.4663 
   5   2.0000      -0.551721       -15.0131 
   6   2.0000      -0.507755       -13.8167 
   7   2.0000      -0.454850       -12.3771 
   8   2.0000      -0.452285       -12.3073 
   9   2.0000      -0.352067        -9.5802 
  10   2.0000      -0.320797        -8.7293 
  11   2.0000      -0.268572        -7.3082 
  12   0.0000      -0.091867        -2.4998 
  13   0.0000      -0.034640        -0.9426 
  14   0.0000       0.022292         0.6066 
  15   0.0000       0.077124         2.0986 
  16   0.0000       0.159631         4.3438 
  17   0.0000       0.185512         5.0480 
  18   0.0000       0.190101         5.1729 
  19   0.0000       0.234057         6.3690 
  20   0.0000       0.278396         7.5755 
  21   0.0000       0.314141         8.5482 
  22   0.0000       0.362655         9.8684 
  23   0.0000       0.393276        10.7016 
  24   0.0000       0.410524        11.1709 
  25   0.0000       0.491421        13.3722 
  26   0.0000       0.492722        13.4077 
  27   0.0000       0.550667        14.9844 
  28   0.0000       0.575446        15.6587 
  29   0.0000       0.597039        16.2463 
  30   0.0000       0.714411        19.4401 
  31   0.0000       0.736874        20.0514 
  32   0.0000       0.789351        21.4793 
  33   0.0000       0.797493        21.7009 
  34   0.0000       1.025855        27.9149 
  35   0.0000       1.195316        32.5262 
  36   0.0000       1.222252        33.2592 
  37   0.0000       1.248248        33.9665 
  38   0.0000       1.259398        34.2700 
  39   0.0000       1.283451        34.9245 
  40   0.0000       1.365586        37.1595 
  41   0.0000       1.372944        37.3597 
  42   0.0000       1.430645        38.9298 
  43   0.0000       1.491342        40.5815 
  44   0.0000       1.515211        41.2310 
  45   0.0000       1.600693        43.5571 
  46   0.0000       1.822521        49.5933 
  47   0.0000       1.865486        50.7625 
  48   0.0000       1.865746        50.7695 
  49   0.0000       1.922257        52.3073 
  50   0.0000       1.945461        52.9387 
  51   0.0000       2.073103        56.4120 
  52   0.0000       2.109321        57.3975 
  53   0.0000       2.135845        58.1193 
  54   0.0000       2.258547        61.4582 
  55   0.0000       2.363407        64.3116 
  56   0.0000       2.485885        67.6444 
  57   0.0000       2.508239        68.2527 
  58   0.0000       2.584310        70.3227 
  59   0.0000       2.679083        72.9016 
  60   0.0000       2.687385        73.1275 
  61   0.0000       2.740269        74.5665 
  62   0.0000       2.784545        75.7713 
  63   0.0000       2.822442        76.8025 
  64   0.0000       2.834761        77.1378 
  65   0.0000       2.866230        77.9941 
  66   0.0000       2.923362        79.5487 
  67   0.0000       2.976460        80.9936 
  68   0.0000       3.089126        84.0594 
  69   0.0000       3.130178        85.1765 
  70   0.0000       3.285301        89.3976 
  71   0.0000       3.293621        89.6240 
  72   0.0000       3.542441        96.3947 
  73   0.0000       3.543665        96.4280 
  74   0.0000       3.602002        98.0154 
  75   0.0000       3.845378       104.6381 
  76   0.0000       4.241582       115.4193 
  77   0.0000       4.486675       122.0886 
  78   0.0000       4.967581       135.1748 
  79   0.0000       4.983726       135.6141 
  80   0.0000       5.018956       136.5727 
  81   0.0000       5.166999       140.6012 
  82   0.0000       5.207650       141.7074 
  83   0.0000       5.312744       144.5671 
  84   0.0000       5.365345       145.9985 
  85   0.0000       5.469096       148.8217 
  86   0.0000       5.760828       156.7601 
  87   0.0000       5.913519       160.9150 
  88   0.0000       5.945111       161.7747 
  89   0.0000       6.121971       166.5873 
  90   0.0000       6.142394       167.1430 
  91   0.0000       6.149621       167.3397 
  92   0.0000       6.298850       171.4004 
  93   0.0000       6.313366       171.7954 
  94   0.0000       6.470977       176.0842 
  95   0.0000       6.480574       176.3454 
  96   0.0000       6.486495       176.5065 
  97   0.0000       6.732605       183.2035 
  98   0.0000       6.751331       183.7131 
  99   0.0000       6.857394       186.5992 
 100   0.0000       7.119322       193.7266 
 101   0.0000       7.186249       195.5478 
 102   0.0000      23.117103       629.0484 
 103   0.0000      43.273569      1177.5337 
 104   0.0000      43.436974      1181.9802 

                    ********************************
                    * MULLIKEN POPULATION ANALYSIS *
                    ********************************

-----------------------
MULLIKEN ATOMIC CHARGES
-----------------------
   0 C :    0.180499
   1 O :   -0.209736
   2 H :    0.259596
   3 O :   -0.106518
   4 H :   -0.123841
Sum of atomic charges:   -0.0000000

--------------------------------
MULLIKEN REDUCED ORBITAL CHARGES
--------------------------------
  0 C s       :     3.110939  s :     3.110939
      pz      :     0.830211  p :     2.421859
      px      :     0.799661
      py      :     0.791987
      dz2     :     0.014902  d :     0.262195
      dxz     :     0.002740
      dyz     :     0.086314
      dx2y2   :     0.074960
      dxy     :     0.083279
      f0      :     0.003113  f :     0.024508
      f+1     :     0.001018
      f-1     :     0.003128
      f+2     :     0.003106
      f-2     :     0.001903
      f+3     :     0.005958
      f-3     :     0.006282
  1 O s       :     3.794569  s :     3.794569
      pz      :     1.571570  p :     4.380772
      px      :     1.542849
      py      :     1.266353
      dz2     :     0.003342  d :     0.032944
      dxz     :     0.002052
      dyz     :     0.007866
      dx2y2   :     0.012972
      dxy     :     0.006714
      f0      :     0.000247  f :     0.001451
      f+1     :     0.000123
      f-1     :     0.000255
      f+2     :     0.000198
      f-2     :     0.000085
      f+3     :     0.000251
      f-3     :     0.000292
  2 H s       :     0.696024  s :     0.696024
      pz      :     0.005691  p :     0.044379
      px      :     0.024702
      py      :     0.013986
  3 O s       :     3.771286  s :     3.771286
      pz      :     1.461451  p :     4.301940
      px      :     1.479981
      py      :     1.360507
      dz2     :     0.002642  d :     0.031479
      dxz     :     0.001306
      dyz     :     0.010587
      dx2y2   :     0.007965
      dxy     :     0.008980
      f0      :     0.000228  f :     0.001814
      f+1     :     0.000044
      f-1     :     0.000184
      f+2     :     0.000300
      f-2     :     0.000176
      f+3     :     0.000362
      f-3     :     0.000520
  4 H s       :     1.111229  s :     1.111229
      pz      :     0.000879  p :     0.012613
      px      :     0.007117
      py      :     0.004616


                     *******************************
                     * LOEWDIN POPULATION ANALYSIS *
                     *******************************

----------------------
LOEWDIN ATOMIC CHARGES
----------------------
   0 C :   -0.635013
   1 O :    0.101278
   2 H :    0.271147
   3 O :    0.238596
   4 H :    0.023992

-------------------------------
LOEWDIN REDUCED ORBITAL CHARGES
-------------------------------
  0 C s       :     2.826507  s :     2.826507
      pz      :     0.811534  p :     2.669878
      px      :     0.826457
      py      :     1.031887
      dz2     :     0.077429  d :     1.000555
      dxz     :     0.010650
      dyz     :     0.256843
      dx2y2   :     0.353623
      dxy     :     0.302009
      f0      :     0.011200  f :     0.138074
      f+1     :     0.004257
      f-1     :     0.016874
      f+2     :     0.013447
      f-2     :     0.016628
      f+3     :     0.036678
      f-3     :     0.038989
  1 O s       :     3.420011  s :     3.420011
      pz      :     1.476577  p :     4.393748
      px      :     1.491666
      py      :     1.425506
      dz2     :     0.010802  d :     0.078995
      dxz     :     0.002083
      dyz     :     0.014065
      dx2y2   :     0.029690
      dxy     :     0.022355
      f0      :     0.000495  f :     0.005968
      f+1     :     0.000391
      f-1     :     0.000924
      f+2     :     0.000666
      f-2     :     0.000237
      f+3     :     0.001861
      f-3     :     0.001395
  2 H s       :     0.610891  s :     0.610891
      pz      :     0.009085  p :     0.117962
      px      :     0.072821
      py      :     0.036056
  3 O s       :     3.395516  s :     3.395516
      pz      :     1.364517  p :     4.287674
      px      :     1.414512
      py      :     1.508644
      dz2     :     0.009063  d :     0.071042
      dxz     :     0.002006
      dyz     :     0.016967
      dx2y2   :     0.021925
      dxy     :     0.021081
      f0      :     0.000673  f :     0.007171
      f+1     :     0.000223
      f-1     :     0.001140
      f+2     :     0.000871
      f-2     :     0.000461
      f+3     :     0.002079
      f-3     :     0.001724
  4 H s       :     0.946255  s :     0.946255
      pz      :     0.001644  p :     0.029753
      px      :     0.018827
      py      :     0.009283


                      *****************************
                      * MAYER POPULATION ANALYSIS *
                      *****************************

  NA   - Mulliken gross atomic population
  ZA   - Total nuclear charge
  QA   - Mulliken gross atomic charge
  VA   - Mayer's total valence
  BVA  - Mayer's bonded valence
  FA   - Mayer's free valence

  ATOM       NA         ZA         QA         VA         BVA        FA
  0 C      5.8195     6.0000     0.1805     4.4632     4.4632    -0.0000
  1 O      8.2097     8.0000    -0.2097     2.0968     2.0968    -0.0000
  2 H      0.7404     1.0000     0.2596     0.9835     0.9835     0.0000
  3 O      8.1065     8.0000    -0.1065     2.4207     2.4207    -0.0000
  4 H      1.1238     1.0000    -0.1238     0.9649     0.9649     0.0000

  Mayer bond orders larger than 0.100000
B(  0-C ,  1-O ) :   1.5646 B(  0-C ,  2-H ) :   0.1894 B(  0-C ,  3-O ) :   2.1729 
B(  0-C ,  4-H ) :   0.5363 B(  1-O ,  2-H ) :   0.3519 B(  2-H ,  3-O ) :   0.1245 
B(  2-H ,  4-H ) :   0.3178 

-------
TIMINGS
-------

Total SCF time: 0 days 0 hours 0 min 3 sec 

Total time                  ....       3.937 sec
Sum of individual times     ....       3.818 sec  ( 97.0%)

Fock matrix formation       ....       2.943 sec  ( 74.8%)
  Split-RI-J                ....       1.562 sec  ( 53.1% of F)
  XC integration            ....       1.360 sec  ( 46.2% of F)
    Basis function eval.    ....       0.307 sec  ( 22.6% of XC)
    Density eval.           ....       0.389 sec  ( 28.6% of XC)
    XC-Functional eval.     ....       0.091 sec  (  6.7% of XC)
    XC-Potential eval.      ....       0.455 sec  ( 33.4% of XC)
Diagonalization             ....       0.032 sec  (  0.8%)
Density matrix formation    ....       0.017 sec  (  0.4%)
Population analysis         ....       0.003 sec  (  0.1%)
Initial guess               ....       0.135 sec  (  3.4%)
Orbital Transformation      ....       0.000 sec  (  0.0%)
Orbital Orthonormalization  ....       0.000 sec  (  0.0%)
DIIS solution               ....       0.011 sec  (  0.3%)
SOSCF solution              ....       0.047 sec  (  1.2%)
Grid generation             ....       0.631 sec  ( 16.0%)


-------------------------------------------------------------------------------
                          DFT DISPERSION CORRECTION                            
                                                                               
                                 DFTD4 V2.0                                    
-------------------------------------------------------------------------------
The revPBE functional is recognized
Active option DFTDOPT                   ...         5   

-------------------------   ----------------
Dispersion correction           -0.008452025
-------------------------   ----------------

------------------   -----------------
gCP correction             0.002968602
------------------   -----------------

-------------------------   --------------------
FINAL SINGLE POINT ENERGY      -189.692857258376
-------------------------   --------------------



           ************************************************************
           *        Program running with 4 parallel MPI-processes     *
           *              working on a common directory               *
           ************************************************************
------------------------------------------------------------------------------
                         ORCA SCF GRADIENT CALCULATION
------------------------------------------------------------------------------

Gradient of the Kohn-Sham DFT energy:
Kohn-Sham wavefunction type      ... RKS
Hartree-Fock exchange scaling    ...    0.000
Number of operators              ...    1
Number of atoms                  ...    5
Basis set dimensions             ...  105
Integral neglect threshold       ... 2.5e-11
Integral primitive cutoff        ... 2.5e-12

Nuclear repulsion gradient       ... done
One Electron Gradient            ... done
Pre-screening matrix             ... done
RI-J gradient                    ... done
Exchange-correlation gradient    ... done
Dispersion correction            ... 

------------------- 
Dispersion Gradient 
------------------- 
   1  :   -0.002052921    0.001829039   -0.000237699
   2  :   -0.003205851   -0.000449015    0.000056017
   3  :   -0.004683829    0.001409649   -0.000185149
   4  :   -0.000240522    0.000671430   -0.000086935
   5  :   -0.000506269    0.000223625   -0.000029223

  |G| =    0.015867173

done
gCP correction                   ... done

------------------
CARTESIAN GRADIENT
------------------

   1   C   :   -0.042690547    0.005967376   -0.000801052
   2   O   :   -0.004326002    0.045411952   -0.005869559
   3   H   :    0.011523934   -0.011218957    0.001453371
   4   O   :    0.015383552   -0.042875213    0.005552238
   5   H   :    0.009419673    0.006399569   -0.000817986

Difference to translation invariance:
           :   -0.0106893912    0.0036847277   -0.0004829887

Norm of the cartesian gradient     ...    0.0804427906
RMS gradient                       ...    0.0207702392
MAX gradient                       ...    0.0454119521

-------
TIMINGS
-------

Total SCF gradient time            ...        1.076 sec

One electron gradient       ....       0.009 sec  (  0.9%)
Prescreening matrices       ....       0.059 sec  (  5.5%)
RI-J Coulomb gradient       ....       0.143 sec  ( 13.3%)
XC gradient                 ....       0.663 sec  ( 61.6%)
------------------------------------------------------------------------------
                         ORCA GEOMETRY RELAXATION STEP
------------------------------------------------------------------------------

Reading the OPT-File                    .... done
Getting information on internals        .... done
Copying old internal coords+grads       .... done
Making the new internal coordinates     .... (new redundants).... done
Validating the new internal coordinates .... (new redundants).... done
Calculating the B-matrix                .... done
Calculating the G,G- and P matrices     .... done
Transforming gradient to internals      .... done
Projecting the internal gradient        .... done
Number of atoms                         ....   5
Number of internal coordinates          ....  19
Current Energy                          ....  -189.692857258 Eh
Current gradient norm                   ....     0.080442791 Eh/bohr
Maximum allowed component of the step   ....  0.300
Current trust radius                    ....  0.300
Evaluating the initial hessian          ....  (read) 
(Reading Exact Hessian)...  
InHessName: freq.hess	The file <freq.hess> is opened as a .hess file
done
done
Diagonalizing the Hessian               .... done
Dimension of the hessian                .... 19
Lowest eigenvalues of the non projected Hessian:
 -0.188760299 -0.000000000 -0.000000000 -0.000000000 -0.000000000
done
Projecting the Hessian                  .... done
Diagonalizing the Hessian               .... done
Dimension of the hessian                ....  19
Lowest eigenvalues of the Hessian:
 -0.188760299  0.006642483  0.024958611  0.038663380  0.039688481
Hessian has   1 negative eigenvalues
Taking P-RFO step
Fraction of internal coordinate   6 in mode   0:  0.402140654
 0.402140654 >  0.000000000 for   0
Fraction of internal coordinate   6 in mode   1:  0.000001905
Fraction of internal coordinate   6 in mode   2:  0.327261037
Fraction of internal coordinate   6 in mode   3:  0.677270535
Fraction of internal coordinate   6 in mode   4:  0.000025331
Fraction of internal coordinate   6 in mode   5:  0.023409801
Fraction of internal coordinate   6 in mode   6:  0.228108997
Fraction of internal coordinate   6 in mode   7:  0.096266387
Fraction of internal coordinate   6 in mode   8:  0.058489883
Hessian mode following switched on. 
Following mode   0
Following mode   0 (highest occurence of internal coordinate   6)
Searching for lambda that maximizes along mode:   0
Mode following switched off!
TS mode is mode number   0 with eigenvalue  -0.18876030 and components:
   1.    0.19025559
   2.   -0.05729764
   3.   -0.64789577
   4.    0.02088842
   5.    0.08352563
   6.    0.51927439
   7.   -0.40214065
   8.   -0.03560571
   9.   -0.17506732
  10.    0.21067303
  11.    0.12796382
  12.   -0.09635774
  13.    0.00399963
  14.   -0.00000010
  15.   -0.00000065
  16.    0.00000013
  17.   -0.00000012
  18.    0.00000045
  19.    0.00000011

Lambda that maximizes along the TS mode:       0.00188608
Searching for lambda that minimizes along all other modes
In cycle   1: lambdaN =  -0.00934680   step =   0.00934680
In cycle   2: lambdaN =  -0.00966516   step =   0.00031836
In cycle   3: lambdaN =  -0.00966539   step =   0.00000022
In cycle   4: lambdaN =  -0.00966539   step =   0.00000000
Lambda that minimizes along all other modes:  -0.00966539
Calculated stepsize too large (   0.3678 >    0.3000). Scaled with    0.8157.
The final length of the internal step   ....       0.3000
Converting the step to cartesian space:
 Initial RMS(Int)=    0.0688247202
Transforming coordinates:
 Iter   0:  RMS(Cart)=    0.0450965609 RMS(Int)=    2.0396813246
 Iter   1:  RMS(Cart)=    0.0011511652 RMS(Int)=    0.0015373884
 Iter   2:  RMS(Cart)=    0.0000399257 RMS(Int)=    0.0000545024
 Iter   3:  RMS(Cart)=    0.0000019137 RMS(Int)=    0.0000022735
 Iter   4:  RMS(Cart)=    0.0000000431 RMS(Int)=    0.0000000631
done
Storing new coordinates                 .... done

                                .--------------------.
          ----------------------|Geometry convergence|-------------------------
          Item                value                   Tolerance       Converged
          ---------------------------------------------------------------------
          RMS gradient        0.0102100903            0.0000300000      NO
          MAX gradient        0.0277358355            0.0001000000      NO
          RMS step            0.0688247202            0.0006000000      NO
          MAX step            0.1934436066            0.0010000000      NO
          ........................................................
          Max(Bonds)      0.1024      Max(Angles)    5.89
          Max(Dihed)        0.00      Max(Improp)    0.00
          ---------------------------------------------------------------------

The optimization has not yet converged - more geometry cycles are needed


    ---------------------------------------------------------------------------
                         Redundant Internal Coordinates
                            (Angstroem and degrees)

        Definition                    Value    dE/dq     Step     New-Value  comp.(TS mode)
    ----------------------------------------------------------------------------
     1. B(O   1,C   0)                1.2400 -0.014541  0.0223    1.2623   
     2. B(H   2,C   0)                1.5478  0.006382 -0.0766    1.4712   
     3. B(H   2,O   1)                1.3178  0.009636  0.0067    1.3245          0.65
     4. B(O   3,C   0)                1.1583 -0.021120  0.0195    1.1778   
     5. B(O   3,O   1)                2.2887 -0.027736  0.0388    2.3275   
     6. B(H   4,H   2)                1.1787  0.001879 -0.1024    1.0763          0.52
     7. B(H   4,C   0)                1.5037  0.011811 -0.0326    1.4711          0.40
     8. A(O   1,C   0,H   4)          100.50  0.002334   -0.03    100.48   
     9. A(O   1,C   0,O   3)          145.20  0.009264   -0.18    145.03   
    10. A(O   3,C   0,H   4)          114.29 -0.011598    0.20    114.50   
    11. A(C   0,O   1,H   2)           74.41  0.004462   -5.28     69.13   
    12. A(O   1,H   2,H   4)          115.82 -0.005465    5.89    121.70   
    13. A(C   0,H   4,H   2)           69.27 -0.001331   -0.59     68.69   
    14. D(H   2,O   1,C   0,H   4)     -0.00 -0.000001    0.00      0.00   
    15. D(H   2,O   1,C   0,O   3)    180.00  0.000000    0.00    180.00   
    16. D(H   4,H   2,O   1,C   0)      0.00  0.000002   -0.00     -0.00   
    17. D(C   0,H   4,H   2,O   1)     -0.00 -0.000002    0.00      0.00   
    18. D(H   2,H   4,C   0,O   3)   -180.00  0.000000   -0.00   -180.00   
    19. D(H   2,H   4,C   0,O   1)      0.00  0.000002   -0.00     -0.00   
    ----------------------------------------------------------------------------

         *************************************************************
         *                GEOMETRY OPTIMIZATION CYCLE   2            *
         *************************************************************
---------------------------------
CARTESIAN COORDINATES (ANGSTROEM)
---------------------------------
  C     -0.338655    0.270299   -0.035151
  O     -0.698226   -0.929486    0.119681
  H      0.623809   -0.833030    0.108092
  O     -0.709776    1.378833   -0.178653
  H      1.122847    0.113383   -0.013968

----------------------------
CARTESIAN COORDINATES (A.U.)
----------------------------
  NO LB      ZA    FRAG     MASS         X           Y           Z
   0 C     6.0000    0    12.011   -0.639964    0.510790   -0.066426
   1 O     8.0000    0    15.999   -1.319456   -1.756473    0.226164
   2 H     1.0000    0     1.008    1.178828   -1.574198    0.204265
   3 O     8.0000    0    15.999   -1.341281    2.605618   -0.337606
   4 H     1.0000    0     1.008    2.121873    0.214263   -0.026396

--------------------------------
INTERNAL COORDINATES (ANGSTROEM)
--------------------------------
 C      0   0   0     0.000000000000     0.00000000     0.00000000
 O      1   0   0     1.262040505661     0.00000000     0.00000000
 H      2   1   0     1.325599612328    69.24371794     0.00000000
 O      1   2   3     1.177783225424   145.07943819   180.00179140
 H      3   2   1     1.076863028510   121.81053807     0.00000000

---------------------------
INTERNAL COORDINATES (A.U.)
---------------------------
 C      0   0   0     0.000000000000     0.00000000     0.00000000
 O      1   0   0     2.384910925614     0.00000000     0.00000000
 H      2   1   0     2.505020230532    69.24371794     0.00000000
 O      1   2   3     2.225687741178   145.07943819   180.00179140
 H      3   2   1     2.034976207628   121.81053807     0.00000000



           ************************************************************
           *        Program running with 4 parallel MPI-processes     *
           *              working on a common directory               *
           ************************************************************
 One Electron integrals                  ... done
 Pre-screening matrix                    ... done


           ************************************************************
           *        Program running with 4 parallel MPI-processes     *
           *              working on a common directory               *
           ************************************************************

Diagonalization of the overlap matrix:
Smallest eigenvalue                        ... 8.540e-04
Time for diagonalization                   ...    0.003 sec
Threshold for overlap eigenvalues          ... 1.000e-08
Number of eigenvalues below threshold      ... 0
Time for construction of square roots      ...    0.002 sec
Total time needed                          ...    0.005 sec

-------------------
DFT GRID GENERATION
-------------------

General Integration Accuracy     IntAcc      ...  4.670
Radial Grid Type                 RadialGrid  ... Gauss-Chebyshev
Angular Grid (max. acc.)         AngularGrid ... Lebedev-302
Angular grid pruning method      GridPruning ... 3 (G Style)
Weight generation scheme         WeightScheme... Becke
Basis function cutoff            BFCut       ...    1.0000e-11
Integration weight cutoff        WCut        ...    1.0000e-14
Grids for H and He will be reduced by one unit

# of grid points (after initial pruning)     ...  25424 (   0.0 sec)
# of grid points (after weights+screening)   ...  24770 (   0.0 sec)
nearest neighbour list constructed           ...    0.0 sec
Grid point re-assignment to atoms done       ...    0.0 sec
Grid point division into batches done        ...    0.1 sec
Reduced shell lists constructed in    0.1 sec

Total number of grid points                  ...    24770
Total number of batches                      ...      389
Average number of points per batch           ...       63
Average number of grid points per atom       ...     4954
Average number of shells per batch           ...    30.17 (73.59%)
Average number of basis functions per batch  ...    79.73 (75.93%)
Average number of large shells per batch     ...    27.15 (89.99%)
Average number of large basis fcns per batch ...    72.53 (90.97%)
Maximum spatial batch extension              ...  15.54, 14.93, 17.89 au
Average spatial batch extension              ...   0.81,  0.74,  0.94 au

Time for grid setup =    0.164 sec

--------------
SCF ITERATIONS
--------------
ITER       Energy         Delta-E        Max-DP      RMS-DP      [F,P]     Damp
               ***  Starting incremental Fock matrix formation  ***
  0   -189.6891744462   0.000000000000 0.00290987  0.00017271  0.0299488 0.7000
                      *** Initiating the SOSCF procedure ***
                      *** Re-Reading the Fockian *** 
                      *** Removing any level shift *** 
ITER      Energy       Delta-E        Grad      Rot      Max-DP    RMS-DP
  1   -189.68994044  -0.0007659908  0.002492  0.002492  0.007840  0.000505
               *** Restarting incremental Fock matrix formation ***
  2   -189.69155423  -0.0016137938  0.003148  0.012187  0.010251  0.000397
  3   -189.69086956   0.0006846744  0.009268  0.006978  0.007328  0.000280
  4   -189.69169028  -0.0008207241  0.000926  0.003164  0.002245  0.000101
  5   -189.69164897   0.0000413071  0.002905  0.002652  0.001847  0.000072
  6   -189.69169525  -0.0000462775  0.000582  0.001324  0.001148  0.000049
  7   -189.69168772   0.0000075316  0.001154  0.000907  0.000765  0.000034
  8   -189.69169853  -0.0000108078  0.000018  0.000042  0.000059  0.000002
  9   -189.69169853  -0.0000000043  0.000013  0.000017  0.000024  0.000001
                  ***Gradient check signals convergence***
              ***Rediagonalizing the Fockian in SOSCF/NRSCF***

               *****************************************************
               *                     SUCCESS                       *
               *           SCF CONVERGED AFTER  10 CYCLES          *
               *****************************************************

Setting up the final grid:

General Integration Accuracy     IntAcc      ...  5.010
Radial Grid Type                 RadialGrid  ... Gauss-Chebyshev
Angular Grid (max. acc.)         AngularGrid ... Lebedev-434
Angular grid pruning method      GridPruning ... 3 (G Style)
Weight generation scheme         WeightScheme... Becke
Basis function cutoff            BFCut       ...    1.0000e-11
Integration weight cutoff        WCut        ...    1.0000e-14
Grids for H and He will be reduced by one unit

# of grid points (after initial pruning)     ...  45766 (   0.0 sec)
# of grid points (after weights+screening)   ...  44538 (   0.0 sec)
nearest neighbour list constructed           ...    0.0 sec
Grid point re-assignment to atoms done       ...    0.0 sec
Grid point division into batches done        ...    0.4 sec
Reduced shell lists constructed in    0.5 sec

Total number of grid points                  ...    44538
Total number of batches                      ...      699
Average number of points per batch           ...       63
Average number of grid points per atom       ...     8908
Average number of shells per batch           ...    29.62 (72.24%)
Average number of basis functions per batch  ...    78.47 (74.73%)
Average number of large shells per batch     ...    26.59 (89.78%)
Average number of large basis fcns per batch ...    71.10 (90.61%)
Maximum spatial batch extension              ...  18.11, 17.51, 16.29 au
Average spatial batch extension              ...   0.68,  0.66,  0.72 au

Final grid set up in    0.5 sec
Final integration                            ... done (   0.2 sec)
Change in XC energy                          ...     0.000008937
Integrated number of electrons               ...    24.000000024
Previous integrated no of electrons          ...    24.000000810
Total Energy       :         -189.69168960 Eh           -5161.77329 eV
  Last Energy change         ...   -1.1461e-09  Tolerance :   1.0000e-08
  Last MAX-Density change    ...    1.3474e-06  Tolerance :   1.0000e-07
             **** THE GBW FILE WAS UPDATED (optts+freq.gbw) ****
             **** DENSITY FILE WAS UPDATED (optts+freq.scfp) ****
             **** ENERGY FILE WAS UPDATED (optts+freq.en.tmp) ****
             **** THE GBW FILE WAS UPDATED (optts+freq.gbw) ****
             **** DENSITY FILE WAS UPDATED (optts+freq.scfp) ****
Total SCF time: 0 days 0 hours 0 min 2 sec 


-------------------------------------------------------------------------------
                          DFT DISPERSION CORRECTION                            
                                                                               
                                 DFTD4 V2.0                                    
-------------------------------------------------------------------------------
-------------------------   ----------------
Dispersion correction           -0.007949452
-------------------------   ----------------

------------------   -----------------
gCP correction             0.003093163
------------------   -----------------

-------------------------   --------------------
FINAL SINGLE POINT ENERGY      -189.696545883736
-------------------------   --------------------



           ************************************************************
           *        Program running with 4 parallel MPI-processes     *
           *              working on a common directory               *
           ************************************************************
------------------------------------------------------------------------------
                         ORCA SCF GRADIENT CALCULATION
------------------------------------------------------------------------------

Gradient of the Kohn-Sham DFT energy:
Kohn-Sham wavefunction type      ... RKS
Hartree-Fock exchange scaling    ...    0.000
Number of operators              ...    1
Number of atoms                  ...    5
Basis set dimensions             ...  105
Integral neglect threshold       ... 2.5e-11
Integral primitive cutoff        ... 2.5e-12

Nuclear repulsion gradient       ... done
One Electron Gradient            ... done
Pre-screening matrix             ... done
RI-J gradient                    ... done
Exchange-correlation gradient    ... done
Dispersion correction            ... 

------------------- 
Dispersion Gradient 
------------------- 
   1  :   -0.002897352    0.001389411   -0.000181416
   2  :   -0.001820458   -0.000609314    0.000077542
   3  :   -0.002735752    0.000660373   -0.000087157
   4  :   -0.000214746    0.000657413   -0.000085101
   5  :   -0.001776697    0.000349626   -0.000046293

  |G| =    0.013588654

done
gCP correction                   ... done

------------------
CARTESIAN GRADIENT
------------------

   1   C   :   -0.009786821    0.002943888   -0.000389809
   2   O   :   -0.003495553    0.010339119   -0.001336369
   3   H   :    0.001233839   -0.003198539    0.000413801
   4   O   :    0.000580219   -0.009281974    0.001202213
   5   H   :    0.002023309    0.001645014   -0.000212261

Difference to translation invariance:
           :   -0.0094450066    0.0024475089   -0.0003224248

Norm of the cartesian gradient     ...    0.0182265910
RMS gradient                       ...    0.0047060856
MAX gradient                       ...    0.0103391192

-------
TIMINGS
-------

Total SCF gradient time            ...        1.260 sec

One electron gradient       ....       0.010 sec  (  0.8%)
Prescreening matrices       ....       0.056 sec  (  4.4%)
RI-J Coulomb gradient       ....       0.148 sec  ( 11.7%)
XC gradient                 ....       0.780 sec  ( 61.9%)
------------------------------------------------------------------------------
                         ORCA GEOMETRY RELAXATION STEP
------------------------------------------------------------------------------

Reading the OPT-File                    .... done
Getting information on internals        .... done
Copying old internal coords+grads       .... done
Making the new internal coordinates     .... (new redundants).... done
Validating the new internal coordinates .... (new redundants).... done
Calculating the B-matrix                .... done
Calculating the G,G- and P matrices     .... done
Transforming gradient to internals      .... done
Projecting the internal gradient        .... done
Number of atoms                         ....   5
Number of internal coordinates          ....  19
Current Energy                          ....  -189.696545884 Eh
Current gradient norm                   ....     0.018226591 Eh/bohr
Maximum allowed component of the step   ....  0.300
Current trust radius                    ....  0.300
Updating the Hessian (Bofill)          .... Diagonalizing the Hessian               .... done
Dimension of the hessian                ....  19
Lowest eigenvalues of the Hessian:
 -0.189055085  0.006642487  0.026768879  0.039688471  0.040308999
Hessian has   1 negative eigenvalues
Taking P-RFO step
Searching for lambda that maximizes along the lowest mode
TS mode is mode number   0 with eigenvalue  -0.18905509 and components:
   1.    0.19100269
   2.   -0.05765160
   3.   -0.64931337
   4.    0.02080249
   5.    0.08098101
   6.    0.51854859
   7.   -0.39811740
   8.   -0.03370247
   9.   -0.17979956
  10.    0.21350203
  11.    0.12569476
  12.   -0.09663366
  13.    0.00464137
  14.    0.00000555
  15.    0.00000660
  16.    0.00000024
  17.   -0.00000109
  18.   -0.00000346
  19.   -0.00000276

Lambda that maximizes along the TS mode:       0.00006866
Searching for lambda that minimizes along all other modes
In cycle   1: lambdaN =  -0.00074588   step =   0.00074588
In cycle   2: lambdaN =  -0.00074605   step =   0.00000017
In cycle   3: lambdaN =  -0.00074605   step =   0.00000000
Lambda that minimizes along all other modes:  -0.00074605
The final length of the internal step   ....       0.1156
Converting the step to cartesian space:
 Initial RMS(Int)=    0.0265099950
Transforming coordinates:
 Iter   0:  RMS(Cart)=    0.0195825823 RMS(Int)=    2.0386756738
 Iter   1:  RMS(Cart)=    0.0001884278 RMS(Int)=    0.0002578595
 Iter   2:  RMS(Cart)=    0.0000029241 RMS(Int)=    0.0000039644
 Iter   3:  RMS(Cart)=    0.0000000577 RMS(Int)=    0.0000000706
done
Storing new coordinates                 .... done

                                .--------------------.
          ----------------------|Geometry convergence|-------------------------
          Item                value                   Tolerance       Converged
          ---------------------------------------------------------------------
          Energy change      -0.0036886254            0.0000010000      NO
          RMS gradient        0.0022185868            0.0000300000      NO
          MAX gradient        0.0063640011            0.0001000000      NO
          RMS step            0.0265099950            0.0006000000      NO
          MAX step            0.0666207362            0.0010000000      NO
          ........................................................
          Max(Bonds)      0.0353      Max(Angles)    1.91
          Max(Dihed)        0.01      Max(Improp)    0.00
          ---------------------------------------------------------------------

The optimization has not yet converged - more geometry cycles are needed


    ---------------------------------------------------------------------------
                         Redundant Internal Coordinates
                            (Angstroem and degrees)

        Definition                    Value    dE/dq     Step     New-Value  comp.(TS mode)
    ----------------------------------------------------------------------------
     1. B(O   1,C   0)                1.2620 -0.002798  0.0065    1.2686   
     2. B(H   2,C   0)                1.4711  0.002047 -0.0320    1.4392   
     3. B(H   2,O   1)                1.3256  0.002311 -0.0022    1.3234          0.65
     4. B(O   3,C   0)                1.1778 -0.004169  0.0057    1.1835   
     5. B(O   3,O   1)                2.3275 -0.006364  0.0154    2.3429   
     6. B(H   4,H   2)                1.0769  0.001196 -0.0353    1.0416          0.52
     7. B(H   4,C   0)                1.4701  0.003537 -0.0217    1.4484          0.40
     8. A(O   1,C   0,H   4)          100.37  0.000605    0.13    100.50   
     9. A(O   1,C   0,O   3)          145.08  0.000400    0.59    145.67   
    10. A(O   3,C   0,H   4)          114.55 -0.001005   -0.72    113.83   
    11. A(C   0,O   1,H   2)           69.24  0.001082   -1.88     67.37   
    12. A(O   1,H   2,H   4)          121.81 -0.001169    1.91    123.72   
    13. A(C   0,H   4,H   2)           68.58 -0.000518   -0.16     68.42   
    14. D(H   2,O   1,C   0,H   4)      0.00 -0.000000   -0.00      0.00   
    15. D(H   2,O   1,C   0,O   3)   -180.00  0.000001   -0.01   -180.00   
    16. D(H   4,H   2,O   1,C   0)     -0.00  0.000000    0.00     -0.00   
    17. D(C   0,H   4,H   2,O   1)      0.00 -0.000001   -0.00      0.00   
    18. D(H   2,H   4,C   0,O   3)    180.00 -0.000001    0.00    180.00   
    19. D(H   2,H   4,C   0,O   1)     -0.00  0.000000    0.00     -0.00   
    ----------------------------------------------------------------------------

         *************************************************************
         *                GEOMETRY OPTIMIZATION CYCLE   3            *
         *************************************************************
---------------------------------
CARTESIAN COORDINATES (ANGSTROEM)
---------------------------------
  C     -0.334305    0.261902   -0.034042
  O     -0.696716   -0.943593    0.121513
  H      0.619923   -0.806353    0.104612
  O     -0.694208    1.380015   -0.178813
  H      1.105305    0.108029   -0.013270

----------------------------
CARTESIAN COORDINATES (A.U.)
----------------------------
  NO LB      ZA    FRAG     MASS         X           Y           Z
   0 C     6.0000    0    12.011   -0.631745    0.494922   -0.064331
   1 O     8.0000    0    15.999   -1.316602   -1.783132    0.229627
   2 H     1.0000    0     1.008    1.171486   -1.523786    0.197688
   3 O     8.0000    0    15.999   -1.311864    2.607851   -0.337908
   4 H     1.0000    0     1.008    2.088725    0.204145   -0.025076

--------------------------------
INTERNAL COORDINATES (ANGSTROEM)
--------------------------------
 C      0   0   0     0.000000000000     0.00000000     0.00000000
 O      1   0   0     1.268367361891     0.00000000     0.00000000
 H      2   1   0     1.323880243168    67.40224117     0.00000000
 O      1   2   3     1.183497960852   145.69336989   179.99577798
 H      3   2   1     1.041914642075   123.76088101     0.00000000

---------------------------
INTERNAL COORDINATES (A.U.)
---------------------------
 C      0   0   0     0.000000000000     0.00000000     0.00000000
 O      1   0   0     2.396866951177     0.00000000     0.00000000
 H      2   1   0     2.501771093697    67.40224117     0.00000000
 O      1   2   3     2.236487026064   145.69336989   179.99577798
 H      3   2   1     1.968933328444   123.76088101     0.00000000



           ************************************************************
           *        Program running with 4 parallel MPI-processes     *
           *              working on a common directory               *
           ************************************************************
 One Electron integrals                  ... done
 Pre-screening matrix                    ... done


           ************************************************************
           *        Program running with 4 parallel MPI-processes     *
           *              working on a common directory               *
           ************************************************************

Diagonalization of the overlap matrix:
Smallest eigenvalue                        ... 8.691e-04
Time for diagonalization                   ...    0.007 sec
Threshold for overlap eigenvalues          ... 1.000e-08
Number of eigenvalues below threshold      ... 0
Time for construction of square roots      ...    0.007 sec
Total time needed                          ...    0.014 sec

-------------------
DFT GRID GENERATION
-------------------

General Integration Accuracy     IntAcc      ...  4.670
Radial Grid Type                 RadialGrid  ... Gauss-Chebyshev
Angular Grid (max. acc.)         AngularGrid ... Lebedev-302
Angular grid pruning method      GridPruning ... 3 (G Style)
Weight generation scheme         WeightScheme... Becke
Basis function cutoff            BFCut       ...    1.0000e-11
Integration weight cutoff        WCut        ...    1.0000e-14
Grids for H and He will be reduced by one unit

# of grid points (after initial pruning)     ...  25424 (   0.0 sec)
# of grid points (after weights+screening)   ...  24767 (   0.0 sec)
nearest neighbour list constructed           ...    0.0 sec
Grid point re-assignment to atoms done       ...    0.0 sec
Grid point division into batches done        ...    0.1 sec
Reduced shell lists constructed in    0.2 sec

Total number of grid points                  ...    24767
Total number of batches                      ...      390
Average number of points per batch           ...       63
Average number of grid points per atom       ...     4953
Average number of shells per batch           ...    29.98 (73.12%)
Average number of basis functions per batch  ...    79.25 (75.48%)
Average number of large shells per batch     ...    26.96 (89.93%)
Average number of large basis fcns per batch ...    71.89 (90.71%)
Maximum spatial batch extension              ...  15.54, 14.76, 17.89 au
Average spatial batch extension              ...   0.81,  0.75,  0.94 au

Time for grid setup =    0.208 sec

--------------
SCF ITERATIONS
--------------
ITER       Energy         Delta-E        Max-DP      RMS-DP      [F,P]     Damp
               ***  Starting incremental Fock matrix formation  ***
  0   -189.6917148706   0.000000000000 0.00148248  0.00006673  0.0112706 0.7000
                      *** Initiating the SOSCF procedure ***
                      *** Re-Reading the Fockian *** 
                      *** Removing any level shift *** 
ITER      Energy       Delta-E        Grad      Rot      Max-DP    RMS-DP
  1   -189.69184272  -0.0001278524  0.000972  0.000972  0.004127  0.000195
               *** Restarting incremental Fock matrix formation ***
  2   -189.69211929  -0.0002765694  0.001443  0.005524  0.003226  0.000151
  3   -189.69201776   0.0001015322  0.004327  0.003045  0.002398  0.000105
  4   -189.69214049  -0.0001227313  0.000160  0.000310  0.000368  0.000015
  5   -189.69214022   0.0000002756  0.000243  0.000226  0.000197  0.000009
  6   -189.69214084  -0.0000006216  0.000147  0.000363  0.000209  0.000011
  7   -189.69214035   0.0000004832  0.000304  0.000253  0.000151  0.000008
  8   -189.69214094  -0.0000005833  0.000014  0.000023  0.000062  0.000002
  9   -189.69214094  -0.0000000019  0.000013  0.000012  0.000030  0.000001
                 **** Energy Check signals convergence ****
              ***Rediagonalizing the Fockian in SOSCF/NRSCF***

               *****************************************************
               *                     SUCCESS                       *
               *           SCF CONVERGED AFTER  10 CYCLES          *
               *****************************************************

Setting up the final grid:

General Integration Accuracy     IntAcc      ...  5.010
Radial Grid Type                 RadialGrid  ... Gauss-Chebyshev
Angular Grid (max. acc.)         AngularGrid ... Lebedev-434
Angular grid pruning method      GridPruning ... 3 (G Style)
Weight generation scheme         WeightScheme... Becke
Basis function cutoff            BFCut       ...    1.0000e-11
Integration weight cutoff        WCut        ...    1.0000e-14
Grids for H and He will be reduced by one unit

# of grid points (after initial pruning)     ...  45766 (   0.0 sec)
# of grid points (after weights+screening)   ...  44531 (   0.0 sec)
nearest neighbour list constructed           ...    0.0 sec
Grid point re-assignment to atoms done       ...    0.0 sec
Grid point division into batches done        ...    0.4 sec
Reduced shell lists constructed in    0.4 sec

Total number of grid points                  ...    44531
Total number of batches                      ...      700
Average number of points per batch           ...       63
Average number of grid points per atom       ...     8906
Average number of shells per batch           ...    29.55 (72.06%)
Average number of basis functions per batch  ...    78.17 (74.45%)
Average number of large shells per batch     ...    26.45 (89.54%)
Average number of large basis fcns per batch ...    70.56 (90.26%)
Maximum spatial batch extension              ...  18.10, 17.57, 16.29 au
Average spatial batch extension              ...   0.69,  0.67,  0.72 au

Final grid set up in    0.5 sec
Final integration                            ... done (   0.1 sec)
Change in XC energy                          ...     0.000010325
Integrated number of electrons               ...    24.000000051
Previous integrated no of electrons          ...    24.000003711
Total Energy       :         -189.69213062 Eh           -5161.78529 eV
  Last Energy change         ...   -2.2992e-09  Tolerance :   1.0000e-08
  Last MAX-Density change    ...    5.5796e-07  Tolerance :   1.0000e-07
             **** THE GBW FILE WAS UPDATED (optts+freq.gbw) ****
             **** DENSITY FILE WAS UPDATED (optts+freq.scfp) ****
             **** ENERGY FILE WAS UPDATED (optts+freq.en.tmp) ****
             **** THE GBW FILE WAS UPDATED (optts+freq.gbw) ****
             **** DENSITY FILE WAS UPDATED (optts+freq.scfp) ****
Total SCF time: 0 days 0 hours 0 min 3 sec 


-------------------------------------------------------------------------------
                          DFT DISPERSION CORRECTION                            
                                                                               
                                 DFTD4 V2.0                                    
-------------------------------------------------------------------------------
-------------------------   ----------------
Dispersion correction           -0.007700154
-------------------------   ----------------

------------------   -----------------
gCP correction             0.003154034
------------------   -----------------

-------------------------   --------------------
FINAL SINGLE POINT ENERGY      -189.696676736612
-------------------------   --------------------



           ************************************************************
           *        Program running with 4 parallel MPI-processes     *
           *              working on a common directory               *
           ************************************************************
------------------------------------------------------------------------------
                         ORCA SCF GRADIENT CALCULATION
------------------------------------------------------------------------------

Gradient of the Kohn-Sham DFT energy:
Kohn-Sham wavefunction type      ... RKS
Hartree-Fock exchange scaling    ...    0.000
Number of operators              ...    1
Number of atoms                  ...    5
Basis set dimensions             ...  105
Integral neglect threshold       ... 2.5e-11
Integral primitive cutoff        ... 2.5e-12

Nuclear repulsion gradient       ... done
One Electron Gradient            ... done
Pre-screening matrix             ... done
RI-J gradient                    ... done
Exchange-correlation gradient    ... done
Dispersion correction            ... 

------------------- 
Dispersion Gradient 
------------------- 
   1  :   -0.004118671    0.000972238   -0.000128188
   2  :   -0.000752904   -0.000553756    0.000071094
   3  :   -0.001286697   -0.000142387    0.000017601
   4  :   -0.000193284    0.000646613   -0.000083699
   5  :   -0.003655441    0.000232283   -0.000032267

  |G| =    0.012887123

done
gCP correction                   ... done

------------------
CARTESIAN GRADIENT
------------------

   1   C   :   -0.002922962    0.000747303   -0.000096245
   2   O   :   -0.000136464    0.001236664   -0.000158563
   3   H   :   -0.001829252    0.000601512   -0.000080052
   4   O   :   -0.001227903   -0.000463510    0.000058237
   5   H   :   -0.003890417   -0.000966976    0.000121162

Difference to translation invariance:
           :   -0.0100069979    0.0011549916   -0.0001554598

Norm of the cartesian gradient     ...    0.0056753825
RMS gradient                       ...    0.0014653775
MAX gradient                       ...    0.0038904170

-------
TIMINGS
-------

[...]


Summary of corrections to the electronic energy:
(perhaps to be used in another calculation)
Total thermal correction                  0.00321953 Eh       2.02 kcal/mol
Non-thermal (ZPE) correction              0.02313545 Eh      14.52 kcal/mol
-----------------------------------------------------------------------
Total correction                          0.02635498 Eh      16.54 kcal/mol


--------
ENTHALPY
--------

The enthalpy is H = U + kB*T
                kB is Boltzmann's constant
Total free energy                 ...   -189.67035546 Eh 
Thermal Enthalpy correction       ...      0.00094421 Eh       0.59 kcal/mol
-----------------------------------------------------------------------
Total Enthalpy                    ...   -189.66941125 Eh


Note: Only C1 symmetry has been detected, increase convergence thresholds 
      if your molecule has a higher symmetry. Symmetry factor of 1.0 is   
      used for the rotational entropy correction. 
 

Note: Rotational entropy computed according to Herzberg 
Infrared and Raman Spectra, Chapter V,1, Van Nostrand Reinhold, 1945 
Point Group:  C1, Symmetry Number:   1  
Rotational constants in cm-1:     3.139247     0.374243     0.334380 

Vibrational entropy computed according to the QRRHO of S. Grimme
Chem.Eur.J. 2012 18 9955


-------
ENTROPY
-------

The entropy contributions are T*S = T*(S(el)+S(vib)+S(rot)+S(trans))
     S(el)   - electronic entropy
     S(vib)  - vibrational entropy
     S(rot)  - rotational entropy
     S(trans)- translational entropy
The entropies will be listed as mutliplied by the temperature to get
units of energy

Electronic entropy                ...      0.00000000 Eh      0.00 kcal/mol
Vibrational entropy               ...      0.00050034 Eh      0.31 kcal/mol
Rotational entropy                ...      0.00995191 Eh      6.24 kcal/mol
Translational entropy             ...      0.01777224 Eh     11.15 kcal/mol
-----------------------------------------------------------------------
Final entropy term                ...      0.02822448 Eh     17.71 kcal/mol

In case the symmetry of your molecule has not been determined correctly
or in case you have a reason to use a different symmetry number we print 
out the resulting rotational entropy values for sn=1,12 :
 --------------------------------------------------------
|  sn= 1 | S(rot)=       0.00995191 Eh      6.24 kcal/mol|
|  sn= 2 | S(rot)=       0.00929745 Eh      5.83 kcal/mol|
|  sn= 3 | S(rot)=       0.00891462 Eh      5.59 kcal/mol|
|  sn= 4 | S(rot)=       0.00864299 Eh      5.42 kcal/mol|
|  sn= 5 | S(rot)=       0.00843230 Eh      5.29 kcal/mol|
|  sn= 6 | S(rot)=       0.00826016 Eh      5.18 kcal/mol|
|  sn= 7 | S(rot)=       0.00811461 Eh      5.09 kcal/mol|
|  sn= 8 | S(rot)=       0.00798854 Eh      5.01 kcal/mol|
|  sn= 9 | S(rot)=       0.00787733 Eh      4.94 kcal/mol|
|  sn=10 | S(rot)=       0.00777785 Eh      4.88 kcal/mol|
|  sn=11 | S(rot)=       0.00768786 Eh      4.82 kcal/mol|
|  sn=12 | S(rot)=       0.00760570 Eh      4.77 kcal/mol|
 --------------------------------------------------------


-------------------
GIBBS FREE ENERGY
-------------------

The Gibbs free energy is G = H - T*S

Total enthalpy                    ...   -189.66941125 Eh 
Total entropy correction          ...     -0.02822448 Eh    -17.71 kcal/mol
-----------------------------------------------------------------------
Final Gibbs free energy         ...   -189.69763573 Eh

For completeness - the Gibbs free energy minus the electronic energy
G-E(el)                           ...     -0.00092529 Eh     -0.58 kcal/mol




------------------------------------------------------------------------------- 
                    Intrinsic Reaction Coordinate Calculation                  
------------------------------------------------------------------------------- 

System:
Nr. of atoms                        .... 5
Algorithm: SD (steepest descent step) plus correction
Settings:
Max. no of cycles        MaxIter    .... 1000
Direction                           .... Forward and backward
Initial displacement Hessian type   .... Read
Hessian Filename                    .... optts+freq.hess
Following Hessian mode              .... 0
Initial displacement type           .... Energy
  Initial displacement energy change.... 0.500 mEh
Coordinate system following type    .... Cartesian
Length of steepest descent step     .... 0.150 bohr
Do parabolic fit 
  if SD step is uphill              .... YES
Do Correction to SD step            .... YES
Scaling for length of correction
  compared to SD step               .... 0.333
Do parabolic fit to SD correction   .... YES
Only interpolate for parabolic fit  .... YES
Do update to length of
  SD step and correction            .... YES
Convergence Tolerances:
  Max. Gradient            TolMAXG  ....  2.0000e-03 Eh/bohr
  RMS Gradient             TolRMSG  ....  5.0000e-04 Eh/bohr
Storing full IRC trajectory in      .... optts+freq_IRC_Full_trj.xyz
Storing forward trajectory in       .... optts+freq_IRC_F_trj.xyz
Storing backward trajectory in      .... optts+freq_IRC_B_trj.xyz


 ...good, the file optts+freq.hess exists
Reading the hessian file           ...... done
Determining length of initial displacement:
  Requested energy change (quadratic behavior): 0.500 mEh
  Resulting scaling factor for initial displacement along normalized TS mode: 0.0735

         *************************************************************
         *                          FORWARD IRC                      *
         *************************************************************

Iteration    E(Eh)      dE(kcal/mol)  max(|G|)   RMS(G) 
Convergence thresholds                0.002000  0.000500            
    0      -189.697037   -0.205016    0.014982  0.005422
    1      -189.704714   -5.022102    0.059487  0.023440
    2      -189.716097   -12.164957    0.049179  0.024330
    3      -189.731144   -21.607530    0.058755  0.026641
    4      -189.745225   -30.443229    0.060805  0.023810
    5      -189.757181   -37.945511    0.059086  0.020093
    6      -189.766905   -44.047626    0.049350  0.016214
    7      -189.774838   -49.025596    0.039515  0.013127
    8      -189.780975   -52.876523    0.028492  0.009852
    9      -189.785682   -55.830683    0.019582  0.007476
   10      -189.788873   -57.832636    0.012016  0.004834
   11      -189.790946   -59.133563    0.006464  0.002980
   12      -189.791233   -59.313539    0.007576  0.003664
   13      -189.791320   -59.368424    0.004873  0.002410
   14      -189.791442   -59.444655    0.004350  0.001919
   15      -189.791559   -59.518446    0.003797  0.001601
   16      -189.791663   -59.583810    0.003172  0.001399
   17      -189.791747   -59.636097    0.002619  0.001107
   18      -189.791816   -59.679454    0.002025  0.000890
   19      -189.791866   -59.710932    0.001491  0.000624
   20      -189.791901   -59.732941    0.000905  0.000398

                      ***********************HURRAY********************
                      ***            THE IRC HAS CONVERGED          ***
                      *************************************************


         *************************************************************
         *                          BACKWARD IRC                     *
         *************************************************************

Iteration    E(Eh)      dE(kcal/mol)  max(|G|)   RMS(G) 
Convergence thresholds                0.002000  0.000500            
    0      -189.697337   -0.393447    0.011639  0.005480
    1      -189.704634   -4.972203    0.050031  0.021173
    2      -189.714648   -11.255930    0.048398  0.022803
    3      -189.728370   -19.866869    0.058692  0.026209
    4      -189.741889   -28.349669    0.059709  0.023833
    5      -189.754536   -36.286058    0.054671  0.020670
    6      -189.764822   -42.740638    0.043456  0.017053
    7      -189.773335   -48.082604    0.034117  0.013836
    8      -189.779951   -52.234260    0.022609  0.010648
    9      -189.785197   -55.526333    0.017967  0.008289
   10      -189.789229   -58.056016    0.014398  0.006584
   11      -189.792277   -59.969100    0.012562  0.006903
   12      -189.792745   -60.262750    0.011014  0.005599
   13      -189.793293   -60.606636    0.010519  0.005020
   14      -189.793902   -60.988658    0.009909  0.004377
   15      -189.794517   -61.374618    0.009325  0.004145
   16      -189.795088   -61.732561    0.008756  0.003874
   17      -189.795627   -62.071002    0.008245  0.003658
   18      -189.796132   -62.387616    0.007743  0.003421
   19      -189.796608   -62.686792    0.007290  0.003228
   20      -189.797055   -62.966841    0.006847  0.003021
   21      -189.797476   -63.231279    0.006444  0.002849
   22      -189.797871   -63.478941    0.006051  0.002668
   23      -189.798243   -63.712539    0.005692  0.002515
   24      -189.798592   -63.931272    0.005342  0.002359
   25      -189.798919   -64.136811    0.005019  0.002229
   26      -189.799224   -64.327917    0.004711  0.002136
   27      -189.799502   -64.502683    0.004428  0.002126
   28      -189.799743   -64.653494    0.004554  0.002440
   29      -189.799819   -64.701760    0.004106  0.002153
   30      -189.799931   -64.772036    0.003983  0.001759
   31      -189.800057   -64.850512    0.003852  0.001711
   32      -189.800177   -64.925985    0.003727  0.001654
   33      -189.800293   -64.999068    0.003604  0.001600
   34      -189.800406   -65.069813    0.003485  0.001549
   35      -189.800515   -65.138195    0.003370  0.001496
   36      -189.800621   -65.204454    0.003258  0.001450
   37      -189.800722   -65.268405    0.003150  0.001399
   38      -189.800821   -65.330428    0.003045  0.001357
   39      -189.800917   -65.390202    0.002944  0.001308
   40      -189.801009   -65.448223    0.002845  0.001269
   41      -189.801098   -65.504081    0.002751  0.001221
   42      -189.801185   -65.558368    0.002658  0.001187
   43      -189.801268   -65.610542    0.002569  0.001143
   44      -189.801348   -65.661186    0.002483  0.001110
   45      -189.801426   -65.709902    0.002400  0.001065
   46      -189.801502   -65.757327    0.002319  0.001037
   47      -189.801574   -65.802707    0.002242  0.001020
   48      -189.801642   -65.845667    0.002167  0.001008
   49      -189.801706   -65.885780    0.002099  0.001126
   50      -189.801726   -65.898181    0.002079  0.001057
   51      -189.801756   -65.916711    0.002044  0.000906
   52      -189.801788   -65.937168    0.002008  0.000890
   53      -189.801820   -65.957272    0.001973  0.000876
   54      -189.801852   -65.976984    0.001938  0.000864
   55      -189.801882   -65.996277    0.001905  0.000847
   56      -189.801913   -66.015252    0.001872  0.000832
   57      -189.801942   -66.033920    0.001839  0.000818
   58      -189.801972   -66.052230    0.001806  0.000803
   59      -189.802000   -66.070258    0.001774  0.000790
   60      -189.802028   -66.087928    0.001743  0.000775
   61      -189.802056   -66.105335    0.001712  0.000763
   62      -189.802083   -66.122381    0.001681  0.000748
   63      -189.802110   -66.139179    0.001651  0.000736
   64      -189.802136   -66.155637    0.001622  0.000723
   65      -189.802162   -66.171804    0.001592  0.000711
   66      -189.802187   -66.187659    0.001564  0.000700
   67      -189.802212   -66.203208    0.001535  0.000689
   68      -189.802236   -66.218438    0.001508  0.000681
   69      -189.802260   -66.233310    0.001480  0.000671
   70      -189.802283   -66.247845    0.001454  0.000670
   71      -189.802306   -66.261879    0.001428  0.000664
   72      -189.802327   -66.275524    0.001404  0.000679
   73      -189.802348   -66.288391    0.001379  0.000676
   74      -189.802368   -66.300829    0.001357  0.000716
   75      -189.802386   -66.312249    0.001334  0.000704
   76      -189.802404   -66.323422    0.001315  0.000756
   77      -189.802412   -66.328503    0.001306  0.000654
   78      -189.802421   -66.334215    0.001295  0.000622
   79      -189.802440   -66.346419    0.001271  0.000568
   80      -189.802461   -66.359225    0.001247  0.000562
   81      -189.802481   -66.371686    0.001224  0.000553
   82      -189.802500   -66.383903    0.001201  0.000543
   83      -189.802519   -66.395882    0.001178  0.000532
   84      -189.802538   -66.407681    0.001156  0.000520
   85      -189.802557   -66.419313    0.001134  0.000510
   86      -189.802575   -66.430720    0.001112  0.000501
   87      -189.802593   -66.441909    0.001091  0.000494

                      ***********************HURRAY********************
                      ***            THE IRC HAS CONVERGED          ***
                      *************************************************


---------------------------------------------------------------
                       IRC PATH SUMMARY              
---------------------------------------------------------------
All gradients are in Eh/Bohr.

Step        E(Eh)      dE(kcal/mol)  max(|G|)   RMS(G) 
   1      -189.802593   -66.441909    0.001091  0.000494
   2      -189.802575   -66.430720    0.001112  0.000501
   3      -189.802557   -66.419313    0.001134  0.000510
   4      -189.802538   -66.407681    0.001156  0.000520
   5      -189.802519   -66.395882    0.001178  0.000532
   6      -189.802500   -66.383903    0.001201  0.000543
   7      -189.802481   -66.371686    0.001224  0.000553
   8      -189.802461   -66.359225    0.001247  0.000562
   9      -189.802440   -66.346419    0.001271  0.000568
  10      -189.802421   -66.334215    0.001295  0.000622
  11      -189.802412   -66.328503    0.001306  0.000654
  12      -189.802404   -66.323422    0.001315  0.000756
  13      -189.802386   -66.312249    0.001334  0.000704
  14      -189.802368   -66.300829    0.001357  0.000716
  15      -189.802348   -66.288391    0.001379  0.000676
  16      -189.802327   -66.275524    0.001404  0.000679
  17      -189.802306   -66.261879    0.001428  0.000664
  18      -189.802283   -66.247845    0.001454  0.000670
  19      -189.802260   -66.233310    0.001480  0.000671
  20      -189.802236   -66.218438    0.001508  0.000681
  21      -189.802212   -66.203208    0.001535  0.000689
  22      -189.802187   -66.187659    0.001564  0.000700
  23      -189.802162   -66.171804    0.001592  0.000711
  24      -189.802136   -66.155637    0.001622  0.000723
  25      -189.802110   -66.139179    0.001651  0.000736
  26      -189.802083   -66.122381    0.001681  0.000748
  27      -189.802056   -66.105335    0.001712  0.000763
  28      -189.802028   -66.087928    0.001743  0.000775
  29      -189.802000   -66.070258    0.001774  0.000790
  30      -189.801972   -66.052230    0.001806  0.000803
  31      -189.801942   -66.033920    0.001839  0.000818
  32      -189.801913   -66.015252    0.001872  0.000832
  33      -189.801882   -65.996277    0.001905  0.000847
  34      -189.801852   -65.976984    0.001938  0.000864
  35      -189.801820   -65.957272    0.001973  0.000876
  36      -189.801788   -65.937168    0.002008  0.000890
  37      -189.801756   -65.916711    0.002044  0.000906
  38      -189.801726   -65.898181    0.002079  0.001057
  39      -189.801706   -65.885780    0.002099  0.001126
  40      -189.801642   -65.845667    0.002167  0.001008
  41      -189.801574   -65.802707    0.002242  0.001020
  42      -189.801502   -65.757327    0.002319  0.001037
  43      -189.801426   -65.709902    0.002400  0.001065
  44      -189.801348   -65.661186    0.002483  0.001110
  45      -189.801268   -65.610542    0.002569  0.001143
  46      -189.801185   -65.558368    0.002658  0.001187
  47      -189.801098   -65.504081    0.002751  0.001221
  48      -189.801009   -65.448223    0.002845  0.001269
  49      -189.800917   -65.390202    0.002944  0.001308
  50      -189.800821   -65.330428    0.003045  0.001357
  51      -189.800722   -65.268405    0.003150  0.001399
  52      -189.800621   -65.204454    0.003258  0.001450
  53      -189.800515   -65.138195    0.003370  0.001496
  54      -189.800406   -65.069813    0.003485  0.001549
  55      -189.800293   -64.999068    0.003604  0.001600
  56      -189.800177   -64.925985    0.003727  0.001654
  57      -189.800057   -64.850512    0.003852  0.001711
  58      -189.799931   -64.772036    0.003983  0.001759
  59      -189.799819   -64.701760    0.004106  0.002153
  60      -189.799743   -64.653494    0.004554  0.002440
  61      -189.799502   -64.502683    0.004428  0.002126
  62      -189.799224   -64.327917    0.004711  0.002136
  63      -189.798919   -64.136811    0.005019  0.002229
  64      -189.798592   -63.931272    0.005342  0.002359
  65      -189.798243   -63.712539    0.005692  0.002515
  66      -189.797871   -63.478941    0.006051  0.002668
  67      -189.797476   -63.231279    0.006444  0.002849
  68      -189.797055   -62.966841    0.006847  0.003021
  69      -189.796608   -62.686792    0.007290  0.003228
  70      -189.796132   -62.387616    0.007743  0.003421
  71      -189.795627   -62.071002    0.008245  0.003658
  72      -189.795088   -61.732561    0.008756  0.003874
  73      -189.794517   -61.374618    0.009325  0.004145
  74      -189.793902   -60.988658    0.009909  0.004377
  75      -189.793293   -60.606636    0.010519  0.005020
  76      -189.792745   -60.262750    0.011014  0.005599
  77      -189.792277   -59.969100    0.012562  0.006903
  78      -189.789229   -58.056016    0.014398  0.006584
  79      -189.785197   -55.526333    0.017967  0.008289
  80      -189.779951   -52.234260    0.022609  0.010648
  81      -189.773335   -48.082604    0.034117  0.013836
  82      -189.764822   -42.740638    0.043456  0.017053
  83      -189.754536   -36.286058    0.054671  0.020670
  84      -189.741889   -28.349669    0.059709  0.023833
  85      -189.728370   -19.866869    0.058692  0.026209
  86      -189.714648   -11.255930    0.048398  0.022803
  87      -189.704634   -4.972203    0.050031  0.021173
  88      -189.697337   -0.393447    0.011639  0.005480
  89      -189.696710    0.000000    0.001910  0.001084 <= TS
  90      -189.697037   -0.205016    0.014982  0.005422
  91      -189.704714   -5.022102    0.059487  0.023440
  92      -189.716097   -12.164957    0.049179  0.024330
  93      -189.731144   -21.607530    0.058755  0.026641
  94      -189.745225   -30.443229    0.060805  0.023810
  95      -189.757181   -37.945511    0.059086  0.020093
  96      -189.766905   -44.047626    0.049350  0.016214
  97      -189.774838   -49.025596    0.039515  0.013127
  98      -189.780975   -52.876523    0.028492  0.009852
  99      -189.785682   -55.830683    0.019582  0.007476
 100      -189.788873   -57.832636    0.012016  0.004834
 101      -189.790946   -59.133563    0.006464  0.002980
 102      -189.791233   -59.313539    0.007576  0.003664
 103      -189.791320   -59.368424    0.004873  0.002410
 104      -189.791442   -59.444655    0.004350  0.001919
 105      -189.791559   -59.518446    0.003797  0.001601
 106      -189.791663   -59.583810    0.003172  0.001399
 107      -189.791747   -59.636097    0.002619  0.001107
 108      -189.791816   -59.679454    0.002025  0.000890
 109      -189.791866   -59.710932    0.001491  0.000624
 110      -189.791901   -59.732941    0.000905  0.000398

Timings for individual modules:

Sum of individual times         ...     1686.047 sec (=  28.101 min)
GTO integral calculation        ...      165.766 sec (=   2.763 min)   9.8 %
SCF iterations                  ...     1221.379 sec (=  20.356 min)  72.4 %
SCF Gradient evaluation         ...      278.298 sec (=   4.638 min)  16.5 %
Geometry relaxation             ...        0.225 sec (=   0.004 min)   0.0 %
Analytical frequency calculation...       20.379 sec (=   0.340 min)   1.2 %
                             ****ORCA TERMINATED NORMALLY****
TOTAL RUN TIME: 0 days 0 hours 29 minutes 10 seconds 909 msec
