
                                 *****************
                                 * O   R   C   A *
                                 *****************

           --- An Ab Initio, DFT and Semiempirical electronic structure package ---

                  #######################################################
                  #                        -***-                        #
                  #          Department of theory and spectroscopy      #
                  #               Directorship: Frank Neese             #
                  #        Max Planck Institute fuer Kohlenforschung    #
                  #                Kaiser Wilhelm Platz 1               #
                  #                 D-45470 Muelheim/Ruhr               #
                  #                      Germany                        #
                  #                                                     #
                  #                  All rights reserved                #
                  #                        -***-                        #
                  #######################################################


                         Program Version 4.2.1 -  RELEASE  -


 With contributions from (in alphabetic order):
   Daniel Aravena         : Magnetic Suceptibility
   Michael Atanasov       : Ab Initio Ligand Field Theory (pilot matlab implementation)
   Alexander A. Auer      : GIAO ZORA, VPT2
   Ute Becker             : Parallelization
   Giovanni Bistoni       : ED, misc. LED, open-shell LED, HFLD
   Martin Brehm           : Molecular dynamics
   Dmytro Bykov           : SCF Hessian
   Vijay G. Chilkuri      : MRCI spin determinant printing, contributions to CSF-ICE
   Dipayan Datta          : RHF DLPNO-CCSD density
   Achintya Kumar Dutta   : EOM-CC, STEOM-CC
   Dmitry Ganyushin       : Spin-Orbit,Spin-Spin,Magnetic field MRCI
   Miquel Garcia          : C-PCM Hessian, Gaussian charge scheme
   Yang Guo               : DLPNO-NEVPT2, CIM, IAO-localization
   Andreas Hansen         : Spin unrestricted coupled pair/coupled cluster methods
   Benjamin Helmich-Paris : CASSCF linear response (MC-RPA)
   Lee Huntington         : MR-EOM, pCC
   Robert Izsak           : Overlap fitted RIJCOSX, COSX-SCS-MP3, EOM
   Christian Kollmar      : KDIIS, OOCD, Brueckner-CCSD(T), CCSD density
   Simone Kossmann        : Meta GGA functionals, TD-DFT gradient, OOMP2, MP2 Hessian
   Martin Krupicka        : AUTO-CI
   Lucas Lang             : DCDCAS
   Dagmar Lenk            : GEPOL surface, SMD
   Dimitrios Liakos       : Extrapolation schemes; Compound Job, initial MDCI parallelization
   Dimitrios Manganas     : Further ROCIS development; embedding schemes
   Dimitrios Pantazis     : SARC Basis sets
   Taras Petrenko         : DFT Hessian,TD-DFT gradient, ASA, ECA, R-Raman, ABS, FL, XAS/XES, NRVS
   Peter Pinski           : DLPNO-MP2, DLPNO-MP2 Gradient
   Christoph Reimann      : Effective Core Potentials
   Marius Retegan         : Local ZFS, SOC
   Christoph Riplinger    : Optimizer, TS searches, QM/MM, DLPNO-CCSD(T), (RO)-DLPNO pert. Triples
   Tobias Risthaus        : Range-separated hybrids, TD-DFT gradient, RPA, STAB
   Michael Roemelt        : Original ROCIS implementation
   Masaaki Saitow         : Open-shell DLPNO-CCSD energy and density
   Barbara Sandhoefer     : DKH picture change effects
   Avijit Sen             : IP-ROCIS
   Kantharuban Sivalingam : CASSCF convergence, NEVPT2, FIC-MRCI
   Bernardo de Souza      : ESD, SOC TD-DFT
   Georgi Stoychev        : AutoAux, RI-MP2 NMR
   Willem Van den Heuvel  : Paramagnetic NMR
   Boris Wezisla          : Elementary symmetry handling
   Frank Wennmohs         : Technical directorship


 We gratefully acknowledge several colleagues who have allowed us to
 interface, adapt or use parts of their codes:
   Stefan Grimme, W. Hujo, H. Kruse,             : VdW corrections, initial TS optimization,
                  C. Bannwarth                     DFT functionals, gCP, sTDA/sTD-DF
   Ed Valeev, F. Pavosevic, A. Kumar             : LibInt (2-el integral package), F12 methods
   Garnet Chan, S. Sharma, J. Yang, R. Olivares  : DMRG
   Ulf Ekstrom                                   : XCFun DFT Library
   Mihaly Kallay                                 : mrcc  (arbitrary order and MRCC methods)
   Andreas Klamt, Michael Diedenhofen            : otool_cosmo (COSMO solvation model)
   Jiri Pittner, Ondrej Demel                    : Mk-CCSD
   Frank Weinhold                                : gennbo (NPA and NBO analysis)
   Christopher J. Cramer and Donald G. Truhlar   : smd solvation model
   Lars Goerigk                                  : TD-DFT with DH, B97 family of functionals
   V. Asgeirsson, H. Jonsson                     : NEB implementation
   FAccTs GmbH                                   : IRC, NEB, NEB-TS, Multilevel, MM, QM/MM, CI optimization
   S Lehtola, MJT Oliveira, MAL Marques          : LibXC Library


 Your calculation uses the libint2 library for the computation of 2-el integrals
 For citations please refer to: http://libint.valeyev.net

 Your ORCA version has been built with support for libXC version: 4.2.3
 For citations please refer to: https://tddft.org/programs/libxc/

 This ORCA versions uses:
   CBLAS   interface :  Fast vector & matrix operations
   LAPACKE interface :  Fast linear algebra routines
   SCALAPACK package :  Parallel linear algebra routines


Your calculation utilizes the geometrical counterpoise correction gCP
Please cite in your paper:
H.Kruse, S. Grimme J.Chem.Phys., 136, (2012), 154101 
   

Your calculation utilizes the atom-pairwise dispersion correction
based on tight binding partial charges (D4)
Cite in your paper:
E.Caldeweyher, C.Bannwarth, S.Grimme, J.Chem.Phys., (2017), 147, 034112.
E.Caldeweyher, S.Ehlert, A.Hansen, H.Neugebauer, S.Grimme, J.Chem.Phys., (2018), in progress.
   

----- Orbital basis set information -----
Your calculation utilizes the basis: def2-SVP
   F. Weigend and R. Ahlrichs, Phys. Chem. Chem. Phys. 7, 3297 (2005).

----- AuxJ basis set information -----
Your calculation utilizes the auxiliary basis: def2/J
   F. Weigend, Phys. Chem. Chem. Phys. 8, 1057 (2006).

================================================================================
                                        WARNINGS
                       Please study these warnings very carefully!
================================================================================


WARNING: Geometry Optimization
  ===> : Switching off AutoStart
         For restart on a previous wavefunction, please use MOREAD

INFO   : the flag for use of LIBINT has been found!

================================================================================
                                       INPUT FILE
================================================================================
NAME = trichloromethane.inp
|  1> ! revPBE D4 gCP(DFT/SVP) def2-SVP Opt Freq TightOpt TightSCF Grid4 FinalGrid5 LargePrint
|  2> 
|  3> %pal
|  4>  nprocs 6
|  5> end
|  6> 
|  7> *xyz 0 1
|  8> C       -1.5394770134      1.3595178351     -0.0667844450                 
|  9> Cl       0.2318403082      1.3872693452     -0.0882427458                 
| 10> Cl      -2.1464487234      1.6128272549      1.5782734080                 
| 11> Cl      -2.1464530225     -0.1687513317     -0.7261547031                 
| 12> H       -1.9038233139      2.1748039666     -0.6970903940                 
| 13> *
| 14> 
| 15>                          ****END OF INPUT****
================================================================================

                       *****************************
                       * Geometry Optimization Run *
                       *****************************

Geometry optimization settings:
Update method            Update   .... BFGS
Choice of coordinates    CoordSys .... Z-matrix Internals
Initial Hessian          InHess   .... Almoef's Model

Convergence Tolerances:
Energy Change            TolE     ....  1.0000e-06 Eh
Max. Gradient            TolMAXG  ....  1.0000e-04 Eh/bohr
RMS Gradient             TolRMSG  ....  3.0000e-05 Eh/bohr
Max. Displacement        TolMAXD  ....  1.0000e-03 bohr
RMS Displacement         TolRMSD  ....  6.0000e-04 bohr
Strict Convergence                ....  False
------------------------------------------------------------------------------
                        ORCA OPTIMIZATION COORDINATE SETUP
------------------------------------------------------------------------------

The optimization will be done in new redundant internal coordinates
Making redundant internal coordinates   ...  (new redundants) done
Evaluating the initial hessian          ...  (Almloef) done
Evaluating the coordinates              ...  done
Calculating the B-matrix                .... done
Calculating the G-matrix                .... done
Diagonalizing the G-matrix              .... done
The first mode is                       ....    1
The number of degrees of freedom        ....    9

    -----------------------------------------------------------------
                    Redundant Internal Coordinates


    -----------------------------------------------------------------
         Definition                    Initial Value    Approx d2E/dq
    -----------------------------------------------------------------
      1. B(Cl  1,C   0)                  1.7717         0.344995   
      2. B(Cl  2,C   0)                  1.7717         0.344995   
      3. B(Cl  3,C   0)                  1.7717         0.344995   
      4. B(H   4,C   0)                  1.0930         0.356108   
      5. A(Cl  1,C   0,Cl  3)          110.5815         0.385056   
      6. A(Cl  2,C   0,Cl  3)          110.5815         0.385056   
      7. A(Cl  1,C   0,H   4)          108.3367         0.332834   
      8. A(Cl  2,C   0,H   4)          108.3367         0.332834   
      9. A(Cl  3,C   0,H   4)          108.3367         0.332834   
     10. A(Cl  1,C   0,Cl  2)          110.5815         0.385056   
    -----------------------------------------------------------------

Number of atoms                         .... 5
Number of degrees of freedom            .... 10

         *************************************************************
         *                GEOMETRY OPTIMIZATION CYCLE   1            *
         *************************************************************
---------------------------------
CARTESIAN COORDINATES (ANGSTROEM)
---------------------------------
  C     -1.539477    1.359518   -0.066784
  Cl     0.231840    1.387269   -0.088243
  Cl    -2.146449    1.612827    1.578273
  Cl    -2.146453   -0.168751   -0.726155
  H     -1.903823    2.174804   -0.697090

----------------------------
CARTESIAN COORDINATES (A.U.)
----------------------------
  NO LB      ZA    FRAG     MASS         X           Y           Z
   0 C     6.0000    0    12.011   -2.909190    2.569116   -0.126204
   1 Cl   17.0000    0    35.453    0.438115    2.621559   -0.166755
   2 Cl   17.0000    0    35.453   -4.056200    3.047802    2.982505
   3 Cl   17.0000    0    35.453   -4.056208   -0.318894   -1.372234
   4 H     1.0000    0     1.008   -3.597705    4.109784   -1.317310

--------------------------------
INTERNAL COORDINATES (ANGSTROEM)
--------------------------------
 C      0   0   0     0.000000000000     0.00000000     0.00000000
 Cl     1   0   0     1.771664657543     0.00000000     0.00000000
 Cl     1   2   0     1.771664657495   110.58149261     0.00000000
 Cl     1   2   3     1.771664657626   110.58149260   237.17237485
 H      1   2   3     1.093034899831   108.33673125   118.58618743

---------------------------
INTERNAL COORDINATES (A.U.)
---------------------------
 C      0   0   0     0.000000000000     0.00000000     0.00000000
 Cl     1   0   0     3.347961003903     0.00000000     0.00000000
 Cl     1   2   0     3.347961003813   110.58149261     0.00000000
 Cl     1   2   3     3.347961004061   110.58149260   237.17237485
 H      1   2   3     2.065536615499   108.33673125   118.58618743

---------------------
BASIS SET INFORMATION
---------------------
There are 3 groups of distinct atoms

 Group   1 Type C   : 7s4p1d contracted to 3s2p1d pattern {511/31/1}
 Group   2 Type Cl  : 10s7p1d contracted to 4s3p1d pattern {5311/511/1}
 Group   3 Type H   : 4s1p contracted to 2s1p pattern {31/1}

Atom   0C    basis set group =>   1
Atom   1Cl   basis set group =>   2
Atom   2Cl   basis set group =>   2
Atom   3Cl   basis set group =>   2
Atom   4H    basis set group =>   3

-------------------------
BASIS SET IN INPUT FORMAT
-------------------------

 # Basis set for element : H 
 NewGTO H 
 S 3 
   1      13.0107010000      0.0334854848
   2       1.9622572000      0.2347218709
   3       0.4445379600      0.8137702853
 S 1 
   1       0.1219496200      1.0000000000
 P 1 
   1       0.8000000000      1.0000000000
  end;

 # Basis set for element : C 
 NewGTO C 
 S 5 
   1    1238.4016938000      0.0055173650
   2     186.2900499200      0.0410888285
   3      42.2511763460      0.1822538213
   4      11.6765579320      0.4682845944
   5       3.5930506482      0.4457581734
 S 1 
   1       0.4024514736      1.0000000000
 S 1 
   1       0.1309018267      1.0000000000
 P 3 
   1       9.4680970621      0.0568883320
   2       2.0103545142      0.3129405934
   3       0.5477100471      0.7606501651
 P 1 
   1       0.1526861379      1.0000000000
 D 1 
   1       0.8000000000      1.0000000000
  end;

 # Basis set for element : Cl
 NewGTO Cl
 S 5 
   1   10449.8275660000      0.0054265952
   2    1571.7365221000      0.0406263782
   3     357.1206552300      0.1835974786
   4     100.2518593500      0.4743894876
   5      30.8127275540      0.4373518111
 S 3 
   1      51.9237894340     -0.0927541549
   2       5.7045760975      0.5638082555
   3       2.3508376809      0.5036704463
 S 1 
   1       0.4460512467      1.0000000000
 S 1 
   1       0.1684885619      1.0000000000
 P 5 
   1     307.6679056900     -0.0088797025
   2      72.1020155150     -0.0642840717
   3      22.5326802620     -0.2428873974
   4       7.8991765444     -0.4834083637
   5       2.8767268321     -0.3895256388
 P 1 
   1       0.7745936396      1.0000000000
 P 1 
   1       0.2103769970      1.0000000000
 D 1 
   1       0.6500000000      1.0000000000
  end;

---------------------------------
AUXILIARY/J BASIS SET INFORMATION
---------------------------------
There are 3 groups of distinct atoms

 Group   1 Type C   : 12s5p4d2f1g contracted to 6s4p3d1f1g pattern {711111/2111/211/2/1}
 Group   2 Type Cl  : 14s5p5d2f1g contracted to 8s4p3d1f1g pattern {71111111/2111/311/2/1}
 Group   3 Type H   : 5s2p1d contracted to 3s1p1d pattern {311/2/1}

Atom   0C    basis set group =>   1
Atom   1Cl   basis set group =>   2
Atom   2Cl   basis set group =>   2
Atom   3Cl   basis set group =>   2
Atom   4H    basis set group =>   3

-------------------------------------
AUXILIARY/J BASIS SET IN INPUT FORMAT
-------------------------------------

 # Auxiliary/J basis set for element : H 
 NewAuxJGTO H 
 S 3 
   1      15.6752927000      0.1007184237
   2       3.6063578000      0.3404257499
   3       1.2080016000      0.6491996172
 S 1 
   1       0.4726794000      1.0000000000
 S 1 
   1       0.2018100000      1.0000000000
 P 2 
   1       2.0281365000      0.5596620919
   2       0.5358730000      0.5596620919
 D 1 
   1       2.2165124000      1.0000000000
  end;

 # Auxiliary/J basis set for element : C 
 NewAuxJGTO C 
 S 7 
   1    1861.0916331000      0.0134602335
   2     642.9939764000      0.0299160374
   3     235.1105725000      0.1008649584
   4      90.7028894000      0.2370970548
   5      36.7794552000      0.3924037254
   6      15.6046273000      0.3195862154
   7       6.8907294000      0.0530104441
 S 1 
   1       3.1478850000     -1.0000000000
 S 1 
   1       1.4777287000      1.0000000000
 S 1 
   1       0.7076466000      1.0000000000
 S 1 
   1       0.3430122000      1.0000000000
 S 1 
   1       0.1669453000      1.0000000000
 P 2 
   1      13.5472892000     -0.6769313712
   2       5.4669419000     -0.3779500978
 P 1 
   1       2.1751721000      1.0000000000
 P 1 
   1       0.8582194000      1.0000000000
 P 1 
   1       0.3376720000      1.0000000000
 D 2 
   1       5.9287253000     -0.3533329857
   2       1.9809209000     -0.7456525731
 D 1 
   1       0.8055417000     -1.0000000000
 D 1 
   1       0.3531244000     -1.0000000000
 F 2 
   1       1.6755626000      0.6311076882
   2       0.5997536000      0.4968166032
 G 1 
   1       1.0024600000     -1.0000000000
  end;

 # Auxiliary/J basis set for element : Cl
 NewAuxJGTO Cl
 S 7 
   1    8044.2766240000      0.0309054740
   2    2924.5123954000      0.0600734063
   3    1110.8168739000      0.1862207460
   4     439.9050761000      0.3715503251
   5     181.1987287000      0.4220785347
   6      77.4148302000      0.0994388367
   7      34.1977273000     -0.0596902748
 S 1 
   1      15.5648397000      1.0000000000
 S 1 
   1       7.2707873000      1.0000000000
 S 1 
   1       3.4711900000     -1.0000000000
 S 1 
   1       1.6860808000     -1.0000000000
 S 1 
   1       0.8293125000      1.0000000000
 S 1 
   1       0.4110124000      1.0000000000
 S 1 
   1       0.2042190000      1.0000000000
 P 2 
   1      12.2564993000      1.4910316311
   2       4.8922575000     -1.4908224419
 P 1 
   1       1.9265460000      1.0000000000
 P 1 
   1       0.7525989000     -1.0000000000
 P 1 
   1       0.2932189000     -1.0000000000
 D 3 
   1      28.4370504000     -1.0829567244
   2       7.2772298000      0.5502349187
   3       2.3111621000     -0.5567798939
 D 1 
   1       0.8580943000     -1.0000000000
 D 1 
   1       0.3376227000     -1.0000000000
 F 2 
   1       1.2035685000      0.5557691438
   2       0.4700000000      0.5557691438
 G 1 
   1       0.7521100000     -1.0000000000
  end;



           ************************************************************
           *        Program running with 6 parallel MPI-processes     *
           *              working on a common directory               *
           ************************************************************
------------------------------------------------------------------------------
                           ORCA GTO INTEGRAL CALCULATION
                           -- RI-GTO INTEGRALS CHOSEN --
------------------------------------------------------------------------------

                         BASIS SET STATISTICS AND STARTUP INFO

Gaussian basis set:
 # of primitive gaussian shells          ...   71
 # of primitive gaussian functions       ...  139
 # of contracted shells                  ...   33
 # of contracted basis functions         ...   73
 Highest angular momentum                ...    2
 Maximum contraction depth               ...    5
Auxiliary gaussian basis set:
 # of primitive gaussian shells          ...  113
 # of primitive gaussian functions       ...  317
 # of contracted shells                  ...   71
 # of contracted aux-basis functions     ...  213
 Highest angular momentum                ...    4
 Maximum contraction depth               ...    7
Ratio of auxiliary to basis functions    ...  2.92
Integral package used                  ... LIBINT
 One Electron integrals                  ... done
 Ordering auxiliary basis shells         ... done
 Integral threshhold             Thresh  ...  2.500e-11
 Primitive cut-off               TCut    ...  2.500e-12
 Pre-screening matrix                    ... done
 Shell pair data                         ... 
 Ordering of the shell pairs             ... done (   0.000 sec) 531 of 561 pairs
 Determination of significant pairs      ... done (   0.000 sec)
 Creation of shell pair data             ... done (   0.000 sec)
 Storage of shell pair data              ... done (   0.012 sec)
 Shell pair data done in (   0.012 sec)
 Computing two index integrals           ... done
 Cholesky decomposition of the V-matrix  ... done


Timings:
 Total evaluation time                   ...   0.139 sec (  0.002 min)
 One electron matrix time                ...   0.007 sec (  0.000 min) =  5.1%
 Schwartz matrix evaluation time         ...   0.096 sec (  0.002 min) = 68.9%
 Two index repulsion integral time       ...   0.001 sec (  0.000 min) =  1.0%
 Cholesky decomposition of V             ...   0.003 sec (  0.000 min) =  2.1%
 Three index repulsion integral time     ...   0.000 sec (  0.000 min) =  0.0%



           ************************************************************
           *        Program running with 6 parallel MPI-processes     *
           *              working on a common directory               *
           ************************************************************
-------------------------------------------------------------------------------
                                 ORCA SCF
-------------------------------------------------------------------------------

------------
SCF SETTINGS
------------
Hamiltonian:
 Density Functional     Method          .... DFT(GTOs)
 Exchange Functional    Exchange        .... PBE
   PBE kappa parameter   XKappa         ....  1.245000
   PBE mue parameter    XMuePBE         ....  0.219520
 Correlation Functional Correlation     .... PBE
   PBE beta parameter  CBetaPBE         ....  0.066725
 LDA part of GGA corr.  LDAOpt          .... PW91-LDA
 Gradients option       PostSCFGGA      .... off
   Density functional embedding theory  .... OFF
   NL short-range parameter             ....  3.700000
 RI-approximation to the Coulomb term is turned on
   Number of auxiliary basis functions  .... 213


General Settings:
 Integral files         IntName         .... trichloromethane
 Hartree-Fock type      HFTyp           .... RHF
 Total Charge           Charge          ....    0
 Multiplicity           Mult            ....    1
 Number of Electrons    NEL             ....   58
 Basis Dimension        Dim             ....   73
 Nuclear Repulsion      ENuc            ....    263.2679351892 Eh

Convergence Acceleration:
 DIIS                   CNVDIIS         .... on
   Start iteration      DIISMaxIt       ....    12
   Startup error        DIISStart       ....  0.200000
   # of expansion vecs  DIISMaxEq       ....     5
   Bias factor          DIISBfac        ....   1.050
   Max. coefficient     DIISMaxC        ....  10.000
 Newton-Raphson         CNVNR           .... off
 SOSCF                  CNVSOSCF        .... on
   Start iteration      SOSCFMaxIt      ....   150
   Startup grad/error   SOSCFStart      ....  0.003300
 Level Shifting         CNVShift        .... on
   Level shift para.    LevelShift      ....    0.2500
   Turn off err/grad.   ShiftErr        ....    0.0010
 Zerner damping         CNVZerner       .... off
 Static damping         CNVDamp         .... on
   Fraction old density DampFac         ....    0.7000
   Max. Damping (<1)    DampMax         ....    0.9800
   Min. Damping (>=0)   DampMin         ....    0.0000
   Turn off err/grad.   DampErr         ....    0.1000
 Fernandez-Rico         CNVRico         .... off

SCF Procedure:
 Maximum # iterations   MaxIter         ....   125
 SCF integral mode      SCFMode         .... Direct
   Integral package                     .... LIBINT
 Reset frequency        DirectResetFreq ....    20
 Integral Threshold     Thresh          ....  2.500e-11 Eh
 Primitive CutOff       TCut            ....  2.500e-12 Eh

Convergence Tolerance:
 Convergence Check Mode ConvCheckMode   .... Total+1el-Energy
 Convergence forced     ConvForced      .... 0
 Energy Change          TolE            ....  1.000e-08 Eh
 1-El. energy change                    ....  1.000e-05 Eh
 Orbital Gradient       TolG            ....  1.000e-05
 Orbital Rotation angle TolX            ....  1.000e-05
 DIIS Error             TolErr          ....  5.000e-07


Diagonalization of the overlap matrix:
Smallest eigenvalue                        ... 6.545e-03
Time for diagonalization                   ...    0.001 sec
Threshold for overlap eigenvalues          ... 1.000e-08
Number of eigenvalues below threshold      ... 0
Time for construction of square roots      ...    0.001 sec
Total time needed                          ...    0.002 sec

-------------------
DFT GRID GENERATION
-------------------

General Integration Accuracy     IntAcc      ...  4.670
Radial Grid Type                 RadialGrid  ... Gauss-Chebyshev
Angular Grid (max. acc.)         AngularGrid ... Lebedev-302
Angular grid pruning method      GridPruning ... 3 (G Style)
Weight generation scheme         WeightScheme... Becke
Basis function cutoff            BFCut       ...    1.0000e-11
Integration weight cutoff        WCut        ...    1.0000e-14
Grids for H and He will be reduced by one unit

# of grid points (after initial pruning)     ...  29820 (   0.0 sec)
# of grid points (after weights+screening)   ...  29164 (   0.0 sec)
nearest neighbour list constructed           ...    0.0 sec
Grid point re-assignment to atoms done       ...    0.0 sec
Grid point division into batches done        ...    0.2 sec
Reduced shell lists constructed in    0.2 sec

Total number of grid points                  ...    29164
Total number of batches                      ...      457
Average number of points per batch           ...       63
Average number of grid points per atom       ...     5833
Average number of shells per batch           ...    21.22 (64.30%)
Average number of basis functions per batch  ...    49.22 (67.42%)
Average number of large shells per batch     ...    18.64 (87.85%)
Average number of large basis fcns per batch ...    44.05 (89.50%)
Maximum spatial batch extension              ...  15.14, 16.85, 16.89 au
Average spatial batch extension              ...   0.62,  0.61,  0.63 au

Time for grid setup =    0.218 sec

------------------------------
INITIAL GUESS: MODEL POTENTIAL
------------------------------
Loading Hartree-Fock densities                     ... done
Calculating cut-offs                               ... done
Setting up the integral package                    ... done
Initializing the effective Hamiltonian             ... done
Starting the Coulomb interaction                   ... done (   0.0 sec)
Reading the grid                                   ... done
Mapping shells                                     ... done
Starting the XC term evaluation                    ... done (   0.0 sec)
  promolecular density results
     # of electrons  =     57.999505253
     EX              =    -87.906308795
     EC              =     -2.239402651
     EX+EC           =    -90.145711446
Transforming the Hamiltonian                       ... done (   0.0 sec)
Diagonalizing the Hamiltonian                      ... done (   0.0 sec)
Back transforming the eigenvectors                 ... done (   0.0 sec)
Now organizing SCF variables                       ... done
                      ------------------
                      INITIAL GUESS DONE (   0.4 sec)
                      ------------------
----------------------
INITIAL GUESS ORBITALS
----------------------
                      0         1         2         3         4         5   
                 -100.68714 -100.68714 -100.68709 -10.05373  -9.23125  -9.23125
                   2.00000   2.00000   2.00000   2.00000   2.00000   2.00000
                  --------  --------  --------  --------  --------  --------
  0C   1s         0.000000 -0.000000  0.000105 -0.988440 -0.000002  0.000004
  0C   2s        -0.000001  0.000000 -0.001123 -0.047623  0.000012 -0.000022
  0C   3s         0.000003 -0.000001  0.006017  0.037798 -0.000061  0.000105
  0C   1pz        0.000013 -0.000014 -0.000056  0.001367 -0.000199 -0.000296
  0C   1px        0.000012  0.000018 -0.000033  0.000790  0.000387 -0.000140
  0C   1py        0.000015 -0.000003  0.000073 -0.001768  0.000017 -0.000288
  0C   2pz       -0.000913  0.001022  0.000548  0.000394  0.001925  0.002843
  0C   2px       -0.000879 -0.001315  0.000317  0.000228 -0.003726  0.001346
  0C   2py       -0.001099  0.000202 -0.000707 -0.000509 -0.000164  0.002778
  0C   1dz2       0.000044 -0.000127 -0.000000  0.000002 -0.000560 -0.000349
  0C   1dxz      -0.000045  0.000054  0.000034 -0.000587  0.000199  0.000310
  0C   1dyz      -0.000048 -0.000014 -0.000076  0.001313 -0.000142  0.000215
  0C   1dx2y2     0.000118  0.000066 -0.000040  0.000680  0.000463 -0.000486
  0C   1dxy      -0.000058  0.000007 -0.000044  0.000759 -0.000007  0.000296
  1Cl  1s         0.450626  0.674895 -0.574077  0.000036  0.240021 -0.087518
  1Cl  2s         0.010128  0.015168 -0.012840 -0.000395 -0.785855  0.286545
  1Cl  3s        -0.004717 -0.007065  0.005823  0.001881 -0.041894  0.015271
  1Cl  4s         0.003276  0.004907 -0.004705 -0.007332  0.018705 -0.006824
  1Cl  1pz        0.000011 -0.000014 -0.000004  0.000018 -0.000004 -0.000040
  1Cl  1px        0.000051  0.000077 -0.000041 -0.000220 -0.001126  0.000411
  1Cl  1py        0.000015 -0.000001  0.000006 -0.000023 -0.000022 -0.000024
  1Cl  2pz        0.000052 -0.000067 -0.000020  0.000110 -0.000158 -0.000190
  1Cl  2px        0.000260  0.000389 -0.000224 -0.000697  0.001430 -0.000519
  1Cl  2py        0.000071 -0.000006  0.000025 -0.000143  0.000042 -0.000205
  1Cl  3pz       -0.000006  0.000034 -0.000032 -0.000454  0.000174  0.000154
  1Cl  3px       -0.000791 -0.001185  0.001313  0.002527 -0.003460  0.001264
  1Cl  3py       -0.000034 -0.000017  0.000041  0.000588 -0.000083  0.000197
  1Cl  1dz2      -0.000092 -0.000032  0.000103 -0.000752 -0.000010  0.000172
  1Cl  1dxz      -0.000015  0.000011  0.000017  0.000087 -0.000013 -0.000006
  1Cl  1dyz       0.000029  0.000012  0.000039 -0.000020  0.000050 -0.000068
  1Cl  1dx2y2     0.000054  0.000142 -0.000158  0.001292  0.000175  0.000033
  1Cl  1dxy      -0.000012  0.000008 -0.000022 -0.000112  0.000010 -0.000012
  2Cl  1s         0.358666 -0.727870 -0.574174  0.000036 -0.193437 -0.165476
  2Cl  2s         0.008061 -0.016359 -0.012842 -0.000395  0.633333  0.541786
  2Cl  3s        -0.003755  0.007620  0.005824  0.001881  0.033770  0.028879
  2Cl  4s         0.002607 -0.005292 -0.004705 -0.007331 -0.015071 -0.012898
  2Cl  1pz        0.000041 -0.000073 -0.000040 -0.000197  0.000851  0.000714
  2Cl  1px       -0.000000  0.000039  0.000010  0.000087 -0.000282 -0.000295
  2Cl  1py        0.000019 -0.000012  0.000001 -0.000052  0.000142  0.000087
  2Cl  2pz        0.000208 -0.000372 -0.000218 -0.000600 -0.001008 -0.000944
  2Cl  2px       -0.000004  0.000195  0.000060  0.000317  0.000590  0.000187
  2Cl  2py        0.000091 -0.000062 -0.000002 -0.000239 -0.000134 -0.000318
  2Cl  3pz       -0.000589  0.001180  0.001213  0.002152  0.002528  0.002240
  2Cl  3px        0.000197 -0.000454 -0.000462 -0.001192 -0.001130 -0.000691
  2Cl  3py       -0.000109  0.000186  0.000209  0.000940  0.000380  0.000505
  2Cl  1dz2       0.000045 -0.000128 -0.000140  0.001275 -0.000104 -0.000070
  2Cl  1dxz      -0.000074  0.000062  0.000113 -0.000758  0.000035  0.000101
  2Cl  1dyz       0.000010 -0.000043 -0.000045  0.000193 -0.000046 -0.000057
  2Cl  1dx2y2    -0.000034 -0.000045  0.000000  0.000107 -0.000139  0.000094
  2Cl  1dxy       0.000033  0.000005  0.000057 -0.000079  0.000019 -0.000088
  3Cl  1s        -0.810184  0.053153 -0.573488  0.000036 -0.044210  0.248879
  3Cl  2s        -0.018209  0.001195 -0.012826 -0.000395  0.144748 -0.814855
  3Cl  3s         0.008481 -0.000556  0.005817  0.001881  0.007721 -0.043450
  3Cl  4s        -0.005891  0.000387 -0.004700 -0.007332 -0.003443  0.019389
  3Cl  1pz        0.000039 -0.000015  0.000009  0.000100 -0.000104  0.000423
  3Cl  1px        0.000036  0.000015  0.000010  0.000087 -0.000031  0.000403
  3Cl  1py        0.000076 -0.000007  0.000039  0.000178 -0.000183  0.001010
  3Cl  2pz        0.000196 -0.000071  0.000056  0.000382 -0.000052 -0.000663
  3Cl  2px        0.000182  0.000071  0.000059  0.000317  0.000336 -0.000518
  3Cl  2py        0.000386 -0.000033  0.000210  0.000521  0.000197 -0.001235
  3Cl  3pz       -0.000538  0.000053 -0.000508 -0.001452 -0.000107  0.001441
  3Cl  3px       -0.000495  0.000008 -0.000462 -0.001192 -0.000434  0.001242
  3Cl  3py       -0.001221  0.000082 -0.001120 -0.001845 -0.000519  0.003043
  3Cl  1dz2       0.000059  0.000039  0.000037 -0.000522  0.000150 -0.000030
  3Cl  1dxz      -0.000014 -0.000020 -0.000084  0.000267 -0.000059 -0.000031
  3Cl  1dyz      -0.000102 -0.000021 -0.000099  0.000732 -0.000056  0.000117
  3Cl  1dx2y2     0.000084 -0.000022  0.000103 -0.000930 -0.000059 -0.000069
  3Cl  1dxy      -0.000085  0.000052 -0.000095  0.000714  0.000054  0.000110
  4H   1s        -0.000000  0.000000 -0.000487  0.003978  0.000005 -0.000009
  4H   2s        -0.000000  0.000000 -0.000237 -0.009340  0.000001 -0.000001
  4H   1pz        0.000022 -0.000024  0.000014  0.001668  0.000005  0.000008
  4H   1px        0.000021  0.000031  0.000008  0.000964 -0.000009  0.000004
  4H   1py        0.000026 -0.000005 -0.000019 -0.002158 -0.000000  0.000006
                      6         7         8         9        10        11   
                  -9.23121  -7.04833  -7.04833  -7.04830  -7.04665  -7.04663
                   2.00000   2.00000   2.00000   2.00000   2.00000   2.00000
                  --------  --------  --------  --------  --------  --------
  0C   1s         0.000524 -0.000012  0.000000 -0.000277  0.000000  0.000001
  0C   2s        -0.002821  0.000070 -0.000002  0.001564 -0.000002 -0.000014
  0C   3s         0.013817 -0.000621  0.000015 -0.013968  0.000007  0.000039
  0C   1pz       -0.000227 -0.000048  0.000054  0.000168  0.000012  0.000050
  0C   1px       -0.000129 -0.000041 -0.000078  0.000098 -0.000025  0.000313
  0C   1py        0.000298 -0.000072  0.000008 -0.000212  0.000000  0.000196
  0C   2pz        0.001222  0.001928 -0.001947 -0.001038 -0.000095 -0.000396
  0C   2px        0.000687  0.001583  0.002768 -0.000615  0.000203 -0.002462
  0C   2py       -0.001619  0.002297 -0.000270  0.001126 -0.000002 -0.001560
  0C   1dz2      -0.000000 -0.000326  0.000841  0.000016 -0.000002  0.000019
  0C   1dxz       0.000161  0.000369 -0.000345 -0.000250  0.000000  0.000021
  0C   1dyz      -0.000366  0.000355  0.000148  0.000506 -0.000001  0.000030
  0C   1dx2y2    -0.000182 -0.000752 -0.000506  0.000303  0.000001 -0.000035
  0C   1dxy      -0.000212  0.000419 -0.000075  0.000283  0.000002  0.000004
  1Cl  1s        -0.178104  0.000263  0.000482 -0.000389 -0.000001  0.000011
  1Cl  2s         0.583242 -0.001039 -0.001899  0.001472  0.000008 -0.000086
  1Cl  3s         0.030301  0.001345  0.002448 -0.001770 -0.000033  0.000338
  1Cl  4s        -0.014410 -0.002204 -0.004172  0.004968 -0.000052  0.000713
  1Cl  1pz       -0.000027 -0.002754 -0.011195  0.006648  0.473208 -0.141063
  1Cl  1px        0.000896  0.376614  0.692099 -0.582264  0.000734 -0.015399
  1Cl  1py        0.000036  0.008915  0.011405 -0.008867  0.338353  0.619998
  1Cl  2pz       -0.000062  0.000059  0.000706 -0.000322 -0.025431  0.007581
  1Cl  2px       -0.000723 -0.020649 -0.037925  0.031653 -0.000027  0.000694
  1Cl  2py        0.000083 -0.000597 -0.000612  0.000441 -0.018178 -0.033197
  1Cl  3pz        0.000009 -0.000007 -0.000155  0.000110  0.004300 -0.001219
  1Cl  3px        0.002879  0.004314  0.007993 -0.007503  0.000037 -0.000550
  1Cl  3py       -0.000013  0.000130  0.000131 -0.000148  0.003056  0.005528
  1Cl  1dz2       0.000140  0.000070 -0.000113 -0.000097  0.000057 -0.000033
  1Cl  1dxz       0.000007  0.000003 -0.000003 -0.000011 -0.000064 -0.000005
  1Cl  1dyz       0.000101 -0.000061 -0.000027 -0.000074 -0.000012 -0.000042
  1Cl  1dx2y2    -0.000193  0.000105  0.000032  0.000118  0.000027  0.000055
  1Cl  1dxy      -0.000009  0.000004 -0.000000  0.000014 -0.000039 -0.000092
  2Cl  1s        -0.179417  0.000260 -0.000482 -0.000389  0.000001 -0.000001
  2Cl  2s         0.587541 -0.001027  0.001902  0.001475 -0.000007  0.000009
  2Cl  3s         0.030530  0.001330 -0.002453 -0.001774  0.000028 -0.000026
  2Cl  4s        -0.014513 -0.002178  0.004176  0.004976  0.000036 -0.000094
  2Cl  1pz        0.000830  0.346171 -0.643050 -0.542255 -0.138032  0.126079
  2Cl  1px       -0.000322 -0.125193  0.239616  0.199185 -0.500201  0.431410
  2Cl  1py        0.000152  0.056227 -0.100297 -0.083440 -0.300014  0.214239
  2Cl  2pz       -0.000711 -0.019002  0.035207  0.029495  0.007406 -0.006731
  2Cl  2px        0.000197  0.006764 -0.013219 -0.010797  0.026876 -0.023068
  2Cl  2py       -0.000005 -0.003182  0.005492  0.004492  0.016115 -0.011451
  2Cl  3pz        0.002711  0.003971 -0.007416 -0.006974 -0.001271  0.001196
  2Cl  3px       -0.000961 -0.001408  0.002793  0.002587 -0.004523  0.003922
  2Cl  3py        0.000353  0.000669 -0.001159 -0.001109 -0.002709  0.002014
  2Cl  1dz2      -0.000190  0.000060 -0.000061  0.000115  0.000026 -0.000054
  2Cl  1dxz       0.000137  0.000013  0.000074 -0.000093  0.000031 -0.000087
  2Cl  1dyz      -0.000021  0.000000 -0.000003  0.000016  0.000036 -0.000080
  2Cl  1dx2y2     0.000023  0.000094  0.000072 -0.000025 -0.000080  0.000065
  2Cl  1dxy       0.000108 -0.000084  0.000015 -0.000079  0.000021  0.000006
  3Cl  1s        -0.181921 -0.000573  0.000002 -0.000352 -0.000000 -0.000010
  3Cl  2s         0.595740  0.002256 -0.000008  0.001327 -0.000000  0.000082
  3Cl  3s         0.030967 -0.002903  0.000011 -0.001583  0.000005 -0.000323
  3Cl  4s        -0.014708  0.005030 -0.000020  0.004651  0.000007 -0.000679
  3Cl  1pz       -0.000360  0.309219 -0.003321  0.197086 -0.296455  0.163367
  3Cl  1px       -0.000326  0.283298  0.002030  0.181009  0.416972  0.463464
  3Cl  1py       -0.000775  0.709790 -0.002948  0.457197 -0.037217 -0.258762
  3Cl  2pz        0.000191 -0.016977  0.000275 -0.010660  0.015948 -0.008817
  3Cl  2px        0.000201 -0.015545 -0.000243 -0.009804 -0.022429 -0.024871
  3Cl  2py        0.000699 -0.038861  0.000174 -0.024863  0.002003  0.013762
  3Cl  3pz       -0.001039  0.003596 -0.000063  0.002594 -0.002705  0.001256
  3Cl  3px       -0.000972  0.003294  0.000057  0.002377  0.003801  0.004098
  3Cl  3py       -0.002566  0.008217 -0.000038  0.005933 -0.000334 -0.002663
  3Cl  1dz2       0.000050  0.000018 -0.000104 -0.000025 -0.000071 -0.000008
  3Cl  1dxz      -0.000138 -0.000061  0.000048  0.000106  0.000028 -0.000003
  3Cl  1dyz      -0.000094 -0.000029  0.000035  0.000060 -0.000022 -0.000035
  3Cl  1dx2y2     0.000162  0.000068  0.000048 -0.000105  0.000043  0.000121
  3Cl  1dxy      -0.000106 -0.000038 -0.000066  0.000070  0.000017  0.000047
  4H   1s        -0.001151  0.000054 -0.000001  0.001210  0.000003  0.000028
  4H   2s        -0.000116  0.000055 -0.000001  0.001231  0.000001  0.000008
  4H   1pz        0.000063  0.000008 -0.000004  0.000100  0.000006  0.000020
  4H   1px        0.000036  0.000006  0.000005  0.000058 -0.000014  0.000071
  4H   1py       -0.000081 -0.000001 -0.000000 -0.000130 -0.000001  0.000056
                     12        13        14        15        16        17   
                  -7.04663  -7.04662  -7.04662  -7.04662  -0.88003  -0.79059
                   2.00000   2.00000   2.00000   2.00000   2.00000   2.00000
                  --------  --------  --------  --------  --------  --------
  0C   1s        -0.000000 -0.000037 -0.000006  0.000002  0.163097 -0.000001
  0C   2s         0.000005  0.000444  0.000073 -0.000028 -0.340362  0.000001
  0C   3s        -0.000012 -0.001345 -0.000217  0.000082 -0.036851  0.000006
  0C   1pz        0.000301  0.000233  0.000000 -0.000084 -0.018781  0.073485
  0C   1px       -0.000141  0.000160 -0.000030  0.000075 -0.010856  0.085398
  0C   1py        0.000164 -0.000289 -0.000103  0.000003  0.024295  0.094976
  0C   2pz       -0.002382 -0.002095  0.000022  0.000775 -0.006331  0.016541
  0C   2px        0.001110 -0.001428  0.000291 -0.000686 -0.003660  0.019222
  0C   2py       -0.001293  0.002590  0.000954 -0.000019  0.008187  0.021377
  0C   1dz2      -0.000030 -0.000000 -0.000005 -0.000029 -0.000010  0.002882
  0C   1dxz       0.000032  0.000034  0.000021  0.000012  0.002864 -0.004659
  0C   1dyz      -0.000008 -0.000080  0.000000  0.000002 -0.006409 -0.004872
  0C   1dx2y2     0.000005 -0.000036 -0.000035  0.000014 -0.003317  0.011471
  0C   1dxy       0.000031 -0.000047  0.000006  0.000010 -0.003705 -0.005452
  1Cl  1s        -0.000005  0.000004 -0.000002  0.000004 -0.039434  0.043500
  1Cl  2s         0.000038 -0.000043  0.000025 -0.000040  0.244887 -0.272194
  1Cl  3s        -0.000147  0.000165 -0.000177  0.000253 -0.329258  0.374252
  1Cl  4s        -0.000331  0.000699  0.000153 -0.000045 -0.157147  0.178765
  1Cl  1pz        0.522360  0.421843 -0.507303 -0.093656 -0.001437  0.004575
  1Cl  1px        0.007255  0.011333 -0.004128  0.005531  0.036546 -0.015456
  1Cl  1py        0.054040 -0.452348 -0.085977 -0.496834  0.001860  0.005109
  1Cl  2pz       -0.027942 -0.022465  0.026879  0.004938 -0.002551  0.007437
  1Cl  2px       -0.000331 -0.000674  0.000280 -0.000383  0.058621 -0.026516
  1Cl  2py       -0.002870  0.024110  0.004540  0.026329  0.003301  0.008357
  1Cl  3pz        0.004737  0.003641 -0.003749 -0.000735 -0.000438  0.006105
  1Cl  3px        0.000256 -0.000311 -0.000125  0.000074  0.051609 -0.020374
  1Cl  3py        0.000581 -0.003996 -0.000722 -0.003680  0.000566  0.006409
  1Cl  1dz2       0.000033 -0.000036  0.000051  0.000033  0.009654 -0.003680
  1Cl  1dxz      -0.000121 -0.000056 -0.000156  0.000002  0.000797 -0.003532
  1Cl  1dyz       0.000012 -0.000009  0.000019 -0.000056 -0.000249 -0.000495
  1Cl  1dx2y2    -0.000015  0.000045  0.000041  0.000018 -0.016852  0.008436
  1Cl  1dxy      -0.000059  0.000092  0.000021 -0.000153 -0.001032 -0.003919
  2Cl  1s         0.000012  0.000002 -0.000001 -0.000005 -0.039434  0.026590
  2Cl  2s        -0.000096 -0.000030  0.000009  0.000052  0.244886 -0.166380
  2Cl  3s         0.000376  0.000096 -0.000085 -0.000317 -0.329256  0.228765
  2Cl  4s         0.000813  0.000665  0.000140 -0.000020 -0.157147  0.109270
  2Cl  1pz       -0.165238  0.194920 -0.147158 -0.105507  0.033484 -0.007306
  2Cl  1px       -0.203066  0.358426 -0.487480 -0.066683 -0.013290  0.009262
  2Cl  1py        0.555394 -0.410907 -0.206924  0.533587  0.006586  0.003674
  2Cl  2pz        0.008721 -0.010428  0.007818  0.005716  0.053597 -0.012670
  2Cl  2px        0.010940 -0.019066  0.025801  0.003528 -0.021508  0.015357
  2Cl  2py       -0.029773  0.021925  0.010959 -0.028302  0.010899  0.005907
  2Cl  3pz       -0.001908  0.001341 -0.001150 -0.000804  0.048016 -0.009613
  2Cl  3px       -0.001649  0.003211 -0.003570 -0.000522 -0.017540  0.012159
  2Cl  3py        0.004868 -0.003793 -0.001642  0.004063  0.007126  0.004599
  2Cl  1dz2       0.000088 -0.000012 -0.000065 -0.000051 -0.015119  0.002770
  2Cl  1dxz      -0.000025 -0.000065 -0.000099 -0.000017  0.010916 -0.006591
  2Cl  1dyz      -0.000060  0.000122 -0.000012  0.000139 -0.005037 -0.002588
  2Cl  1dx2y2    -0.000010 -0.000007  0.000118 -0.000009 -0.001777  0.003542
  2Cl  1dxy      -0.000019 -0.000044 -0.000030  0.000009  0.001645 -0.000437
  3Cl  1s        -0.000007  0.000002  0.000005  0.000000 -0.039435 -0.070089
  3Cl  2s         0.000056 -0.000023 -0.000052 -0.000004  0.244891  0.438571
  3Cl  3s        -0.000225  0.000050  0.000316  0.000042 -0.329263 -0.603013
  3Cl  4s        -0.000463  0.000673  0.000038 -0.000061 -0.157150 -0.288037
  3Cl  1pz        0.500614  0.313247  0.513270 -0.315639 -0.014805 -0.008103
  3Cl  1px       -0.192208  0.287604  0.201231  0.546831 -0.013290 -0.006393
  3Cl  1py       -0.143157 -0.249254 -0.300386 -0.080372 -0.030747 -0.022784
  3Cl  2pz       -0.026843 -0.016713 -0.027230  0.016734 -0.024045 -0.013927
  3Cl  2px        0.010245 -0.015322 -0.010668 -0.028981 -0.021507 -0.011102
  3Cl  2py        0.007600  0.013324  0.016066  0.004274 -0.049125 -0.039024
  3Cl  3pz        0.004455  0.003054  0.004008 -0.002452 -0.018986 -0.011028
  3Cl  3px       -0.001919  0.002691  0.001593  0.004143 -0.017541 -0.008678
  3Cl  3py       -0.001501 -0.001924 -0.002338 -0.000626 -0.044677 -0.029796
  3Cl  1dz2       0.000092  0.000059 -0.000062  0.000087  0.005437  0.004701
  3Cl  1dxz      -0.000032  0.000066  0.000002 -0.000044 -0.004341 -0.002545
  3Cl  1dyz       0.000074  0.000108 -0.000082  0.000031 -0.011212 -0.007543
  3Cl  1dx2y2     0.000008  0.000058 -0.000077 -0.000089  0.010090  0.009665
  3Cl  1dxy      -0.000083  0.000064 -0.000025 -0.000071 -0.010151 -0.006447
  4H   1s        -0.000010 -0.000885 -0.000148  0.000057 -0.081189  0.000000
  4H   2s        -0.000003 -0.000234 -0.000040  0.000016 -0.008809 -0.000000
  4H   1pz        0.000073  0.000122 -0.000123 -0.000209 -0.006814  0.001232
  4H   1px       -0.000025  0.000110 -0.000167  0.000217 -0.003939  0.001432
  4H   1py        0.000042 -0.000115 -0.000212 -0.000048  0.008814  0.001593
                     18        19        20        21        22        23   
                  -0.79059  -0.61405  -0.47763  -0.44784  -0.44784  -0.33908
                   2.00000   2.00000   2.00000   2.00000   2.00000   2.00000
                  --------  --------  --------  --------  --------  --------
  0C   1s         0.000001  0.191969  0.042999 -0.000000 -0.000000 -0.000000
  0C   2s        -0.000002 -0.430400 -0.098712 -0.000002 -0.000001  0.000004
  0C   3s         0.000001 -0.114062 -0.075906  0.000012  0.000006 -0.000018
  0C   1pz       -0.095357  0.092761 -0.223656  0.280397 -0.093768  0.057234
  0C   1px        0.109581  0.053620 -0.129280  0.024040  0.340349 -0.032894
  0C   1py       -0.024751 -0.119984  0.289295  0.227519  0.079600  0.029547
  0C   2pz       -0.021460  0.029162 -0.106351  0.134104 -0.044840  0.006827
  0C   2px        0.024663  0.016856 -0.061472  0.011501  0.162769 -0.003937
  0C   2py       -0.005567 -0.037718  0.137565  0.108815  0.038074  0.003521
  0C   1dz2      -0.012193  0.000004 -0.000014  0.010506 -0.007998  0.006158
  0C   1dxz       0.005477 -0.000991  0.003943 -0.004582  0.003333 -0.015960
  0C   1dyz      -0.001478  0.002219 -0.008823 -0.003470 -0.002038  0.008764
  0C   1dx2y2     0.005545  0.001148 -0.004566  0.007160  0.010874 -0.005671
  0C   1dxy       0.001860  0.001283 -0.005100 -0.003979 -0.003611 -0.022439
  1Cl  1s         0.055817  0.030179  0.011772 -0.001307 -0.018501 -0.000426
  1Cl  2s        -0.349269 -0.191453 -0.075101  0.008379  0.118634  0.003008
  1Cl  3s         0.480227  0.269926  0.097012 -0.011430 -0.161847 -0.009717
  1Cl  4s         0.229387  0.153977  0.112909 -0.012385 -0.175259  0.008599
  1Cl  1pz       -0.005135  0.007656 -0.038932  0.059397 -0.012231 -0.086321
  1Cl  1px       -0.019833  0.057465  0.080793 -0.012145 -0.171934  0.034025
  1Cl  1py       -0.001953 -0.009904  0.050357  0.047088  0.007072 -0.145192
  1Cl  2pz       -0.008399  0.012323 -0.066794  0.102930 -0.021573 -0.148653
  1Cl  2px       -0.034023  0.095367  0.141272 -0.021085 -0.298496  0.060364
  1Cl  2py       -0.003148 -0.015941  0.086393  0.081654  0.012741 -0.250898
  1Cl  3pz       -0.006444  0.014511 -0.069110  0.107981 -0.020022 -0.198267
  1Cl  3px       -0.026144  0.094914  0.125373 -0.020932 -0.296383  0.070672
  1Cl  3py       -0.002815 -0.018771  0.089392  0.085283  0.010013 -0.329122
  1Cl  1dz2      -0.006662  0.010696  0.008295 -0.000027 -0.016549 -0.000165
  1Cl  1dxz       0.003939 -0.005477  0.015917 -0.020332  0.004527  0.005830
  1Cl  1dyz      -0.000053  0.001067 -0.000278 -0.000263  0.001134  0.003619
  1Cl  1dx2y2     0.009705 -0.017970 -0.014512  0.002712  0.029056 -0.006337
  1Cl  1dxy       0.001521  0.007085 -0.020588 -0.016168 -0.002857  0.011439
  2Cl  1s        -0.065580  0.030179  0.011772 -0.015369  0.010382  0.000882
  2Cl  2s         0.410360 -0.191453 -0.075103  0.098550 -0.066572 -0.006229
  2Cl  3s        -0.564222  0.269925  0.097015 -0.134445  0.090821  0.020123
  2Cl  4s        -0.269513  0.153979  0.112913 -0.145598  0.098343 -0.017785
  2Cl  1pz        0.023002  0.057210  0.057581 -0.127183  0.105996 -0.102860
  2Cl  1px       -0.004260 -0.013253 -0.056936  0.077212  0.022707 -0.040086
  2Cl  1py        0.003095 -0.003196  0.063421  0.013737  0.039700  0.096671
  2Cl  2pz        0.039372  0.094768  0.101274 -0.220964  0.184073 -0.180961
  2Cl  2px       -0.007583 -0.022290 -0.098568  0.133729  0.039430 -0.068487
  2Cl  2py        0.005251 -0.004779  0.109143  0.024182  0.068564  0.167190
  2Cl  3pz        0.030179  0.095352  0.085353 -0.217829  0.183610 -0.219767
  2Cl  3px       -0.005886 -0.020453 -0.095056  0.137207  0.043220 -0.093810
  2Cl  3py        0.004428 -0.007829  0.110298  0.024111  0.072627  0.218052
  2Cl  1dz2      -0.012636 -0.021029 -0.001675  0.019272 -0.023981  0.014474
  2Cl  1dxz       0.005435  0.008226  0.018025 -0.023291 -0.005396 -0.002207
  2Cl  1dyz      -0.002969  0.002783 -0.022919 -0.004797 -0.013366 -0.007980
  2Cl  1dx2y2     0.000363 -0.000789 -0.002838  0.008065  0.006591 -0.002201
  2Cl  1dxy       0.000757 -0.000587  0.009783  0.000939  0.001012 -0.001544
  3Cl  1s         0.009763  0.030179  0.011772  0.016675  0.008119 -0.000456
  3Cl  2s        -0.061091 -0.191453 -0.075103 -0.106928 -0.052060  0.003221
  3Cl  3s         0.083996  0.269925  0.097013  0.145875  0.071022 -0.010409
  3Cl  4s         0.040125  0.153978  0.112917  0.157971  0.076912  0.009204
  3Cl  1pz       -0.003811 -0.011311 -0.075874 -0.027691 -0.061831 -0.051742
  3Cl  1px        0.007940 -0.013255 -0.056939 -0.073260  0.033334  0.144542
  3Cl  1py        0.002505 -0.056172 -0.039758 -0.138302 -0.073878 -0.075846
  3Cl  2pz       -0.006113 -0.019234 -0.131123 -0.047748 -0.107052 -0.089537
  3Cl  2px        0.013039 -0.022293 -0.098573 -0.126871  0.057834  0.249049
  3Cl  2py        0.004346 -0.092919 -0.070531 -0.240365 -0.128367 -0.132661
  3Cl  3pz       -0.004872 -0.016432 -0.128233 -0.047569 -0.110934 -0.117223
  3Cl  3px        0.010355 -0.020454 -0.095057 -0.129782  0.062080  0.330795
  3Cl  3py        0.003284 -0.094251 -0.054829 -0.237137 -0.127333 -0.165233
  3Cl  1dz2      -0.004061  0.010331 -0.006691  0.016030 -0.003565 -0.003024
  3Cl  1dxz       0.001506 -0.001504 -0.014007 -0.004856  0.001075  0.001399
  3Cl  1dyz      -0.002135 -0.006639 -0.021411 -0.008690 -0.019156 -0.004310
  3Cl  1dx2y2     0.001410  0.017317 -0.005736  0.015157  0.017743  0.012872
  3Cl  1dxy       0.004841 -0.008109 -0.014981 -0.021783  0.008624  0.005077
  4H   1s        -0.000001 -0.266751  0.257045 -0.000002 -0.000005 -0.000001
  4H   2s        -0.000001 -0.030741  0.052919 -0.000001 -0.000001  0.000001
  4H   1pz       -0.001600 -0.012896  0.006535  0.006054 -0.002025  0.004504
  4H   1px        0.001838 -0.007454  0.003777  0.000519  0.007349 -0.002588
  4H   1py       -0.000415  0.016680 -0.008452  0.004912  0.001719  0.002325
                     24        25        26        27        28        29   
                  -0.33908  -0.31202  -0.31173  -0.31173  -0.29681  -0.05361
                   2.00000   2.00000   2.00000   2.00000   2.00000   0.00000
                  --------  --------  --------  --------  --------  --------
  0C   1s        -0.000000 -0.015277 -0.000028 -0.000000 -0.000002  0.223342
  0C   2s         0.000001  0.025904  0.000041 -0.000000  0.000009 -0.607804
  0C   3s         0.000002  0.064764  0.000141  0.000003 -0.000022 -1.267914
  0C   1pz        0.014686 -0.101022  0.036866  0.031548  0.000004 -0.159922
  0C   1px        0.059724 -0.058271 -0.046036  0.032325 -0.000004 -0.092445
  0C   1py        0.038038  0.130567  0.008366  0.038838 -0.000004  0.206876
  0C   2pz        0.001755 -0.014207 -0.029740 -0.025309 -0.000003 -0.192942
  0C   2px        0.007131 -0.008313  0.036823 -0.025929  0.000001 -0.111524
  0C   2py        0.004543  0.018445 -0.006488 -0.031168 -0.000005  0.249614
  0C   1dz2      -0.010763 -0.000072  0.019258  0.008645  0.000001  0.000008
  0C   1dxz      -0.020357  0.009887 -0.008075 -0.001305  0.000000 -0.002318
  0C   1dyz      -0.016035 -0.022090 -0.001485 -0.005653  0.000002  0.005187
  0C   1dx2y2     0.010535 -0.011419 -0.008367  0.018690 -0.000001  0.002684
  0C   1dxy       0.002601 -0.012777  0.003636 -0.007987 -0.000000  0.002999
  1Cl  1s         0.000772 -0.001491 -0.002029  0.001426 -0.000000  0.012139
  1Cl  2s        -0.005457  0.010098  0.013618 -0.009570  0.000003 -0.079253
  1Cl  3s         0.017628 -0.021927 -0.027364  0.019229 -0.000009  0.062378
  1Cl  4s        -0.015585 -0.008033 -0.014865  0.010448  0.000009  0.426528
  1Cl  1pz       -0.137398  0.090034 -0.151938 -0.004627 -0.137819  0.016771
  1Cl  1px       -0.061775  0.055135  0.059106 -0.041527  0.000005 -0.119404
  1Cl  1py        0.036236 -0.116265  0.087928 -0.148363 -0.106546 -0.021697
  1Cl  2pz       -0.237601  0.156608 -0.265738 -0.008104 -0.242460  0.027829
  1Cl  2px       -0.109594  0.098064  0.104475 -0.073402  0.000009 -0.198897
  1Cl  2py        0.063205 -0.202234  0.153774 -0.259485 -0.187443 -0.036005
  1Cl  3pz       -0.310591  0.206270 -0.336852 -0.007791 -0.306188  0.076534
  1Cl  3px       -0.128323  0.126735  0.140962 -0.099041  0.000006 -0.552161
  1Cl  3py        0.079169 -0.266382  0.197329 -0.328713 -0.236707 -0.099001
  1Cl  1dz2      -0.007864  0.002335  0.007681  0.000052  0.003239  0.043192
  1Cl  1dxz       0.011149  0.000912  0.002139 -0.001426 -0.001391  0.019254
  1Cl  1dyz      -0.004116 -0.003846  0.001221 -0.002503 -0.000972  0.005720
  1Cl  1dx2y2     0.006793 -0.006057 -0.006339  0.007603  0.001869 -0.071834
  1Cl  1dxy      -0.003965 -0.001179 -0.002692  0.001952 -0.001074 -0.024906
  2Cl  1s        -0.000018 -0.001499  0.002246  0.001042  0.000000  0.012139
  2Cl  2s         0.000124  0.010151 -0.015068 -0.006993 -0.000000 -0.079253
  2Cl  3s        -0.000402 -0.022034  0.030275  0.014049  0.000001  0.062378
  2Cl  4s         0.000358 -0.008089  0.016445  0.007635  0.000004  0.426527
  2Cl  1pz       -0.037213  0.092896  0.000442 -0.027737  0.038148 -0.103843
  2Cl  1px       -0.145657  0.050489  0.146669 -0.035952  0.142244  0.052728
  2Cl  1py       -0.097770 -0.115425 -0.133512 -0.129733  0.093065 -0.038021
  2Cl  2pz       -0.064138  0.163609 -0.000364 -0.049042  0.067112 -0.173028
  2Cl  2px       -0.251336  0.087095  0.256924 -0.062703  0.250243  0.087750
  2Cl  2py       -0.168705 -0.200495 -0.233650 -0.226974  0.163726 -0.063188
  2Cl  3pz       -0.085139  0.213257 -0.008909 -0.065475  0.084750 -0.480673
  2Cl  3px       -0.332039  0.115560  0.328970 -0.075666  0.316026  0.243034
  2Cl  3py       -0.222857 -0.264423 -0.299743 -0.287853  0.206762 -0.174423
  2Cl  1dz2       0.003905 -0.004427  0.006436  0.003644  0.000211 -0.053654
  2Cl  1dxz       0.007623  0.003818 -0.007765 -0.001589 -0.000073  0.056389
  2Cl  1dyz       0.007297 -0.003838  0.004198  0.001802  0.001054 -0.038533
  2Cl  1dx2y2    -0.008366 -0.002308 -0.001790  0.004019 -0.003810 -0.005988
  2Cl  1dxy       0.001061 -0.002315 -0.002984 -0.003915  0.001535  0.021672
  3Cl  1s        -0.000755 -0.001494 -0.000224 -0.002468 -0.000000  0.012140
  3Cl  2s         0.005334  0.010122  0.001506  0.016562  0.000002 -0.079257
  3Cl  3s        -0.017227 -0.021973 -0.003026 -0.033277 -0.000004  0.062381
  3Cl  4s         0.015228 -0.008066 -0.001650 -0.018092  0.000004  0.426559
  3Cl  1pz        0.112776  0.088708 -0.081078 -0.166095  0.099658  0.062944
  3Cl  1px       -0.043976  0.050606  0.083414 -0.125846 -0.142222  0.052729
  3Cl  1py       -0.098613 -0.119023 -0.006156  0.033801  0.013493  0.090928
  3Cl  2pz        0.194161  0.153527 -0.141855 -0.290965  0.175325  0.104721
  3Cl  2px       -0.076461  0.087302  0.145857 -0.220543 -0.250207  0.087751
  3Cl  2py       -0.173118 -0.208916 -0.010874  0.057946  0.023736  0.151548
  3Cl  3pz        0.258353  0.203089 -0.178841 -0.374406  0.221414  0.289836
  3Cl  3px       -0.098189  0.115827  0.182411 -0.283938 -0.315973  0.243052
  3Cl  3py       -0.212104 -0.273080 -0.014321  0.065510  0.029979  0.421298
  3Cl  1dz2       0.010718  0.002037  0.003953  0.000767 -0.003450  0.010320
  3Cl  1dxz      -0.003310  0.001293 -0.002303 -0.005971  0.001461 -0.035176
  3Cl  1dyz       0.004376 -0.005769 -0.001852 -0.006988 -0.000080 -0.057753
  3Cl  1dx2y2     0.009436  0.001422 -0.001381  0.004977  0.001942  0.030950
  3Cl  1dxy      -0.005277 -0.004269  0.001759 -0.006562 -0.000457 -0.049117
  4H   1s        -0.000005  0.247290  0.000460  0.000003 -0.000002  0.057915
  4H   2s        -0.000005  0.090055  0.000170  0.000004  0.000003  0.374646
  4H   1pz        0.001155  0.004730 -0.001246 -0.001068  0.000000 -0.002471
  4H   1px        0.004700  0.002730  0.001561 -0.001094 -0.000000 -0.001428
  4H   1py        0.002994 -0.006113 -0.000287 -0.001315  0.000000  0.003197
                     30        31        32        33        34        35   
                  -0.02209  -0.02209   0.03881   0.33971   0.34396   0.34397
                   0.00000   0.00000   0.00000   0.00000   0.00000   0.00000
                  --------  --------  --------  --------  --------  --------
  0C   1s         0.000005  0.000001  0.062625  0.085944 -0.000017  0.000021
  0C   2s        -0.000006 -0.000003 -0.163389 -0.696323  0.000245 -0.000184
  0C   3s        -0.000058  0.000003 -1.120470  1.374455 -0.000165  0.000376
  0C   1pz       -0.367740 -0.323177  0.228957 -0.209450  0.394179  0.420362
  0C   1px       -0.255243  0.504018  0.132345 -0.120850  0.356335 -0.561533
  0C   1py       -0.398356 -0.024609 -0.296160  0.270997  0.463902  0.074147
  0C   2pz       -0.583431 -0.512712  0.615906  0.513412 -0.845812 -0.902292
  0C   2px       -0.404950  0.799604  0.356025  0.296316 -0.764695  1.205325
  0C   2py       -0.632024 -0.039043 -0.796652 -0.664282 -0.996189 -0.159143
  0C   1dz2       0.013894  0.025814 -0.000037 -0.000127  0.024642  0.071009
  0C   1dxz      -0.008449 -0.010693  0.010292  0.031824 -0.030030 -0.029958
  0C   1dyz      -0.009350  0.002465 -0.023029 -0.071220 -0.027958  0.011024
  0C   1dx2y2     0.023990 -0.016627 -0.011919 -0.036834  0.065291 -0.039499
  0C   1dxy      -0.011874  0.002283 -0.013312 -0.041169 -0.033421 -0.007113
  1Cl  1s         0.008950 -0.017673 -0.006620 -0.018393  0.008472 -0.013307
  1Cl  2s        -0.059654  0.117786  0.045737  0.135535 -0.063435  0.099646
  1Cl  3s         0.080431 -0.158802 -0.104612 -0.454634  0.215055 -0.337723
  1Cl  4s         0.246964 -0.487638 -0.034897  0.053571  0.155337 -0.246021
  1Cl  1pz        0.028754  0.029310 -0.009443 -0.031331  0.023799  0.031943
  1Cl  1px       -0.064326  0.127014  0.017245 -0.004202  0.008661 -0.013660
  1Cl  1py        0.034516 -0.001598  0.012214  0.040530  0.034153 -0.000117
  1Cl  2pz        0.045954  0.049530 -0.012194 -0.069178  0.046796  0.066686
  1Cl  2px       -0.108861  0.214948  0.032820 -0.001592  0.007899 -0.012487
  1Cl  2py        0.057402 -0.004894  0.015774  0.089485  0.070778 -0.002953
  1Cl  3pz        0.153513  0.131740 -0.078526 -0.106942  0.147052  0.146540
  1Cl  3px       -0.317228  0.626372  0.080906  0.172037 -0.155130  0.244590
  1Cl  3py        0.163663  0.013028  0.101568  0.138364  0.163530  0.034918
  1Cl  1dz2       0.034254 -0.036268 -0.000294  0.071502 -0.057001  0.142503
  1Cl  1dxz       0.044028  0.041061 -0.031849 -0.111243  0.104068  0.132178
  1Cl  1dyz      -0.004721 -0.000102 -0.022643 -0.009107 -0.008176 -0.003000
  1Cl  1dx2y2    -0.030608  0.078551 -0.011274 -0.128578  0.153268 -0.211079
  1Cl  1dxy       0.049668  0.000880  0.041196  0.143919  0.142339  0.004796
  2Cl  1s         0.010830  0.016587 -0.006621 -0.018401  0.007329  0.013954
  2Cl  2s        -0.072181 -0.110552  0.045738  0.135594 -0.054877 -0.104499
  2Cl  3s         0.097307  0.149049 -0.104618 -0.454841  0.186039  0.354179
  2Cl  4s         0.298871  0.457685 -0.034891  0.053495  0.134291  0.258261
  2Cl  1pz       -0.067018 -0.122333  0.011769 -0.018338  0.013096  0.002821
  2Cl  1px        0.054013  0.009302 -0.013027 -0.022730  0.026454 -0.032298
  2Cl  1py        0.021978 -0.014376  0.015086  0.042288  0.032216  0.007409
  2Cl  2pz       -0.114274 -0.207103  0.025056 -0.033298  0.018186 -0.010148
  2Cl  2px        0.088802  0.016376 -0.020342 -0.052753  0.055373 -0.061714
  2Cl  2py        0.036675 -0.022100  0.020817  0.094344  0.065653  0.015983
  2Cl  3pz       -0.325226 -0.597550  0.039472  0.111667 -0.085215 -0.284076
  2Cl  3px        0.277444  0.054020 -0.087489 -0.139738  0.214060 -0.042114
  2Cl  3py        0.098533 -0.091743  0.117540  0.167948  0.132867 -0.041410
  2Cl  1dz2      -0.026310 -0.090983 -0.030856 -0.201676  0.159800  0.144317
  2Cl  1dxz       0.070178  0.004947 -0.013946  0.015982  0.042658 -0.241254
  2Cl  1dyz       0.031721 -0.020837  0.028606  0.102137  0.152458  0.065836
  2Cl  1dx2y2    -0.013095 -0.000351 -0.008149 -0.006819 -0.022300  0.044002
  2Cl  1dxy      -0.012842  0.003655 -0.036333 -0.058580 -0.051422 -0.034551
  3Cl  1s        -0.019779  0.001085 -0.006621 -0.018401 -0.015705 -0.000666
  3Cl  2s         0.131827 -0.007234  0.045738  0.135594  0.117612  0.004985
  3Cl  3s        -0.177729  0.009752 -0.104614 -0.454833 -0.398542 -0.016900
  3Cl  4s        -0.545789  0.029952 -0.034891  0.053390 -0.292090 -0.012104
  3Cl  1pz       -0.033443  0.030005 -0.017563 -0.036299  0.021817  0.027840
  3Cl  1px       -0.039459 -0.038035 -0.013026 -0.022730  0.017953 -0.037693
  3Cl  1py       -0.134169  0.011176 -0.007592  0.028394  0.002734  0.003765
  3Cl  2pz       -0.055299  0.048935 -0.026454 -0.082896  0.040723  0.056149
  3Cl  2px       -0.065748 -0.061894 -0.020339 -0.052755  0.032252 -0.076391
  3Cl  2py       -0.227982  0.018724 -0.019009  0.055977 -0.012048  0.006875
  3Cl  3pz       -0.184880  0.152440 -0.123692 -0.190665 -0.055515  0.144368
  3Cl  3px       -0.207718 -0.191668 -0.087491 -0.139764 -0.053148 -0.211645
  3Cl  3py       -0.648472  0.054848 -0.008605 -0.065824 -0.288738  0.007764
  3Cl  1dz2      -0.043347 -0.011178  0.031175  0.130308  0.052519 -0.044274
  3Cl  1dxz       0.006960  0.001393  0.038676  0.052656 -0.101758  0.004858
  3Cl  1dyz       0.037758 -0.044347  0.009971  0.002377 -0.199883 -0.121544
  3Cl  1dx2y2    -0.068330  0.022735  0.027666  0.184862  0.114674  0.061344
  3Cl  1dxy       0.045217  0.055063  0.004347 -0.030234 -0.180241  0.144813
  4H   1s         0.000008 -0.000003  0.227841  0.547098  0.000371  0.000099
  4H   2s         0.000011  0.000005  2.018355 -0.628036  0.000197 -0.000176
  4H   1pz       -0.013359 -0.011742 -0.012227  0.007413 -0.007969 -0.008486
  4H   1px       -0.009272  0.018312 -0.007067  0.004278 -0.007199  0.011336
  4H   1py       -0.014473 -0.000894  0.015815 -0.009588 -0.009341 -0.001499
                     36        37        38        39        40        41   
                   0.34883   0.47975   0.47976   0.52740   0.57407   0.57408
                   0.00000   0.00000   0.00000   0.00000   0.00000   0.00000
                  --------  --------  --------  --------  --------  --------
  0C   1s         0.013220  0.000008 -0.000002 -0.130982  0.000000 -0.000007
  0C   2s         0.011540 -0.000059 -0.000004  0.882027  0.000010  0.000054
  0C   3s         0.548373  0.000178  0.000035 -2.330224 -0.000043 -0.000155
  0C   1pz       -0.012429 -0.151110  0.096666 -0.471283  0.046588 -0.014687
  0C   1px       -0.007306 -0.064485 -0.196712 -0.272424  0.003008  0.056296
  0C   1py        0.015394 -0.145667 -0.013171  0.609595  0.037357  0.013811
  0C   2pz        0.456104  0.787430 -0.503680  0.906162 -0.191561  0.060393
  0C   2px        0.263924  0.336064  1.025000  0.523800 -0.012356 -0.231475
  0C   2py       -0.588537  0.758994  0.068651 -1.172083 -0.153616 -0.056772
  0C   1dz2      -0.000081 -0.010368  0.009405  0.000114  0.092801  0.032598
  0C   1dxz       0.018169 -0.001404 -0.005527 -0.032052  0.153500  0.097321
  0C   1dyz      -0.040584  0.003220 -0.002466  0.071725 -0.020618  0.126826
  0C   1dx2y2    -0.021071 -0.010302 -0.007750  0.037119  0.052453 -0.002375
  0C   1dxy      -0.023447  0.002581  0.006910  0.041464  0.107116 -0.142128
  1Cl  1s         0.037162  0.017204  0.052471  0.003119  0.000281  0.005340
  1Cl  2s        -0.273753 -0.128899 -0.393124 -0.023378 -0.002069 -0.039303
  1Cl  3s         1.027107  0.525296  1.602072  0.082518  0.006617  0.126061
  1Cl  4s        -1.175802 -0.692358 -2.111531 -0.017618  0.000375  0.004838
  1Cl  1pz       -0.006396  0.030733 -0.009928  0.011716 -0.043436 -0.020061
  1Cl  1px       -0.009907  0.022695  0.069232  0.000037  0.001481  0.028002
  1Cl  1py        0.008227  0.023662 -0.007963 -0.015147 -0.031125  0.030579
  1Cl  2pz       -0.006737  0.100482 -0.036358  0.041145 -0.129613 -0.054363
  1Cl  2px       -0.034778  0.058521  0.178533 -0.000535  0.004858  0.091828
  1Cl  2py        0.008619  0.079751 -0.021773 -0.053197 -0.093476  0.084166
  1Cl  3pz       -0.088116 -0.173293  0.091525 -0.111547  0.102673  0.010803
  1Cl  3px        0.170308  0.095198  0.290255 -0.040312 -0.008082 -0.151891
  1Cl  3py        0.113731 -0.155191  0.006025  0.144258  0.077584 -0.025128
  1Cl  1dz2      -0.023233 -0.143751  0.033143 -0.033117  0.145609  0.028447
  1Cl  1dxz      -0.069020 -0.056818  0.066549 -0.039185 -0.340248 -0.336403
  1Cl  1dyz      -0.047670  0.052909  0.019733 -0.128283 -0.037971  0.100010
  1Cl  1dx2y2     0.015403 -0.067689  0.065755 -0.009402  0.082334 -0.016109
  1Cl  1dxy       0.089066 -0.073242 -0.037981  0.050653 -0.224216  0.470469
  2Cl  1s         0.037163  0.036841 -0.041134  0.003120  0.004484 -0.002915
  2Cl  2s        -0.273760 -0.276018  0.308182 -0.023385 -0.033004  0.021453
  2Cl  3s         1.027125  1.124838 -1.255910  0.082546  0.105866 -0.068811
  2Cl  4s        -1.175729 -1.482547  1.655291 -0.017649  0.003989 -0.002623
  2Cl  1pz       -0.012197  0.052111 -0.044783  0.005422  0.006963 -0.018497
  2Cl  1px       -0.001639  0.008707  0.040242  0.009008 -0.046069 -0.022121
  2Cl  1py        0.007442  0.022262  0.007833 -0.016004  0.012982 -0.042517
  2Cl  2pz       -0.035596  0.138121 -0.109900  0.018419  0.029337 -0.060857
  2Cl  2px        0.006375  0.038690  0.122041  0.031861 -0.136399 -0.067063
  2Cl  2py        0.004714  0.072530  0.027127 -0.056291  0.033219 -0.123511
  2Cl  3pz        0.118576  0.160710 -0.259584 -0.088957 -0.097458  0.097039
  2Cl  3px       -0.124715 -0.199515 -0.076091 -0.072510  0.110344  0.053750
  2Cl  3py        0.141707 -0.101462 -0.082229  0.147333  0.002824  0.080264
  2Cl  1dz2      -0.029784  0.006034 -0.084981 -0.018762 -0.310928  0.052064
  2Cl  1dxz      -0.054929 -0.088969 -0.085836 -0.032875 -0.273426 -0.088841
  2Cl  1dyz       0.071696 -0.055438 -0.004059  0.002797  0.266661 -0.435890
  2Cl  1dx2y2    -0.013250 -0.074471 -0.087183 -0.052877  0.212537  0.196926
  2Cl  1dxy      -0.080823  0.096380  0.016132 -0.132312 -0.115719  0.023440
  3Cl  1s         0.037182 -0.054043 -0.011337  0.003118 -0.004765 -0.002426
  3Cl  2s        -0.273906  0.404900  0.084939 -0.023371  0.035073  0.017852
  3Cl  3s         1.027638 -1.650064 -0.346138  0.082491 -0.112494 -0.057272
  3Cl  4s        -1.175557  2.174766  0.456178 -0.017588 -0.004319 -0.002111
  3Cl  1pz       -0.004175  0.030120 -0.017540  0.014121  0.019088  0.044039
  3Cl  1px       -0.001628  0.016813  0.037584  0.009020  0.043464 -0.026882
  3Cl  1py        0.013672  0.062957  0.009976 -0.009270  0.004215  0.006790
  3Cl  2pz        0.004313  0.085421 -0.060985  0.049829  0.053595  0.129939
  3Cl  2px        0.006410  0.041090  0.121251  0.031901  0.128519 -0.081153
  3Cl  2py        0.035644  0.160034  0.022889 -0.031979  0.022865  0.025524
  3Cl  3pz       -0.167029  0.039301  0.150971 -0.120173 -0.032504 -0.099256
  3Cl  3px       -0.124554  0.115721 -0.179445 -0.072543 -0.104015  0.065153
  3Cl  3py       -0.078812  0.282387  0.078538  0.123179 -0.102315 -0.063213
  3Cl  1dz2       0.053029  0.033411  0.103800  0.051628 -0.104349 -0.355706
  3Cl  1dxz       0.092148  0.060692 -0.037126  0.136354 -0.179842  0.018900
  3Cl  1dyz       0.047085  0.015694 -0.086786 -0.018360 -0.185479 -0.292623
  3Cl  1dx2y2     0.034441  0.059493 -0.016989 -0.012206 -0.432425  0.002085
  3Cl  1dxy       0.032913 -0.037413  0.135536 -0.001503 -0.224406  0.116289
  4H   1s         0.636021  0.000029 -0.000021 -0.583239  0.000017  0.000000
  4H   2s        -0.035143 -0.000103  0.000013  2.295671 -0.000001  0.000056
  4H   1pz       -0.021282 -0.007581  0.004844  0.101742 -0.070053  0.022080
  4H   1px       -0.012301 -0.003235 -0.009859  0.058819 -0.004501 -0.084641
  4H   1py        0.027549 -0.007298 -0.000664 -0.131606 -0.056168 -0.020758
                     42        43        44        45        46        47   
                   0.63837   0.64266   0.64266   0.64929   0.65589   0.65590
                   0.00000   0.00000   0.00000   0.00000   0.00000   0.00000
                  --------  --------  --------  --------  --------  --------
  0C   1s         0.000087  0.000027  0.000025  0.108155  0.000063  0.000101
  0C   2s        -0.000747 -0.000255 -0.000190 -0.958068 -0.000578 -0.000914
  0C   3s         0.002273  0.000785  0.000568  2.955341  0.001795  0.002807
  0C   1pz        0.000099 -0.083595 -0.085715  0.032785  0.010951  0.041944
  0C   1px        0.000081 -0.071747  0.118114  0.018902  0.043799 -0.024236
  0C   1py        0.000036 -0.096715 -0.013504 -0.042322  0.027992  0.021546
  0C   2pz       -0.000247  0.233269  0.239185 -0.049806 -0.021190 -0.081278
  0C   2px       -0.000220  0.200172 -0.329569 -0.028652 -0.084993  0.046883
  0C   2py       -0.000156  0.269852  0.037685  0.064208 -0.054302 -0.041820
  0C   1dz2      -0.000024  0.034341  0.063517 -0.000020  0.008327 -0.015982
  0C   1dxz       0.000003 -0.005243 -0.027278 -0.000775  0.013914  0.016016
  0C   1dyz       0.000020 -0.019296 -0.004306  0.001715  0.014299 -0.004529
  0C   1dx2y2    -0.000069  0.061837 -0.032483  0.000881 -0.018875  0.003878
  0C   1dxy       0.000034 -0.026139  0.015272  0.000973  0.002898  0.016800
  1Cl  1s         0.000006 -0.004016  0.006612 -0.000942  0.001386 -0.000764
  1Cl  2s        -0.000049  0.029182 -0.048051  0.004223 -0.009692  0.005334
  1Cl  3s         0.000258 -0.083719  0.137936  0.113725  0.019058 -0.010252
  1Cl  4s        -0.000579 -0.036615  0.059814 -0.696300  0.037976 -0.022025
  1Cl  1pz        0.056139  0.029642 -0.032319 -0.014566  0.030753  0.036534
  1Cl  1px        0.000041 -0.052443  0.086314 -0.038739  0.031639 -0.017553
  1Cl  1py        0.043498 -0.023147  0.050830  0.018665  0.007473  0.037466
  1Cl  2pz        0.182248  0.095673 -0.102427 -0.045232  0.097511  0.115589
  1Cl  2px        0.000120 -0.172810  0.284408 -0.144356  0.105394 -0.058501
  1Cl  2py        0.141205 -0.072981  0.162673  0.057944  0.023477  0.118721
  1Cl  3pz       -0.160475 -0.107265  0.058109  0.022837 -0.074791 -0.083281
  1Cl  3px        0.000119  0.219371 -0.360842  0.505896 -0.126835  0.070827
  1Cl  3py       -0.124291  0.029877 -0.140725 -0.029054 -0.013292 -0.089488
  1Cl  1dz2       0.026999 -0.500935 -0.211729 -0.139995 -0.103823  0.095473
  1Cl  1dxz      -0.429916 -0.057128  0.191902  0.075753 -0.075488 -0.029849
  1Cl  1dyz      -0.008207  0.116244  0.119937 -0.488446 -0.665380  0.358705
  1Cl  1dx2y2     0.015555 -0.205942 -0.259256 -0.010830 -0.127878  0.092874
  1Cl  1dxy      -0.332793  0.163129 -0.192976 -0.097090  0.033874 -0.075002
  2Cl  1s         0.000001 -0.003718 -0.006786 -0.000944 -0.000028  0.001579
  2Cl  2s        -0.000010  0.027020  0.049314  0.004237  0.000195 -0.011038
  2Cl  3s         0.000112 -0.077515 -0.141523  0.113656 -0.000328  0.021691
  2Cl  4s        -0.000460 -0.033911 -0.061580 -0.696126 -0.001143  0.043185
  2Cl  1pz       -0.015567 -0.033801 -0.066597 -0.042857  0.012350  0.038099
  2Cl  1px       -0.058039  0.039747  0.054292  0.001715  0.048547 -0.004344
  2Cl  1py       -0.037933 -0.029346 -0.065429  0.014909  0.031800 -0.007368
  2Cl  2pz       -0.050543 -0.112280 -0.221317 -0.155558  0.038995  0.126267
  2Cl  2px       -0.188404  0.129670  0.175655  0.013348  0.153737 -0.015618
  2Cl  2py       -0.123144 -0.093498 -0.210326  0.043244  0.100669 -0.022801
  2Cl  3pz        0.044719  0.151612  0.311907  0.482990 -0.027527 -0.146946
  2Cl  3px        0.165828 -0.162072 -0.164011 -0.151097 -0.113378  0.027534
  2Cl  3py        0.108497  0.058529  0.192799  0.033033 -0.073922  0.014510
  2Cl  1dz2       0.189433 -0.054285 -0.004667  0.118611 -0.022822 -0.071852
  2Cl  1dxz       0.364713 -0.237431 -0.082330 -0.013550 -0.041382 -0.029682
  2Cl  1dyz       0.287007  0.168009  0.191544 -0.257166 -0.039888 -0.227282
  2Cl  1dx2y2    -0.210570 -0.483189  0.274942 -0.217620  0.065184 -0.335381
  2Cl  1dxy      -0.027783  0.164083 -0.264463 -0.380919 -0.001087 -0.672350
  3Cl  1s        -0.000013  0.007734  0.000172 -0.000942 -0.001360 -0.000817
  3Cl  2s         0.000094 -0.056206 -0.001248  0.004224  0.009503  0.005710
  3Cl  3s        -0.000211  0.161348  0.003593  0.113704 -0.018512 -0.011083
  3Cl  4s        -0.000436  0.069963  0.001446 -0.696264 -0.038123 -0.023207
  3Cl  1pz       -0.040505 -0.088071  0.004208 -0.003608 -0.015678  0.030218
  3Cl  1px        0.058042 -0.066490 -0.010255  0.001757  0.029197 -0.038985
  3Cl  1py       -0.005402 -0.054233 -0.000369  0.045212  0.030888  0.023888
  3Cl  2pz       -0.131488 -0.284767  0.014278 -0.002593 -0.047959  0.096683
  3Cl  2px        0.188431 -0.215612 -0.034132  0.013483  0.094047 -0.122465
  3Cl  2py       -0.017521 -0.182257 -0.001255  0.161375  0.102400  0.078400
  3Cl  3pz        0.115651  0.278855 -0.038244 -0.153660  0.021383 -0.079513
  3Cl  3px       -0.166056  0.220152  0.068210 -0.151230 -0.083084  0.081624
  3Cl  3py        0.015084  0.285427  0.000271 -0.459109 -0.120311 -0.084824
  3Cl  1dz2      -0.215751 -0.099026 -0.494744  0.020159 -0.206061 -0.057330
  3Cl  1dxz       0.066114 -0.200182  0.216435  0.373511 -0.553218 -0.355010
  3Cl  1dyz      -0.279329 -0.209120  0.101832 -0.227442  0.248473  0.187826
  3Cl  1dx2y2     0.195622 -0.095139  0.242815 -0.275004  0.171768  0.055298
  3Cl  1dxy       0.359544 -0.136114 -0.235415 -0.083733  0.140798  0.039559
  4H   1s        -0.000048 -0.000039 -0.000007 -0.086487 -0.000062 -0.000103
  4H   2s        -0.000732 -0.000248 -0.000199 -0.894848 -0.000534 -0.000805
  4H   1pz       -0.000006 -0.006461 -0.006646 -0.015217  0.005133  0.019674
  4H   1px       -0.000006 -0.005560  0.009139 -0.008793  0.020506 -0.011425
  4H   1py        0.000025 -0.007474 -0.001045  0.019664  0.013151  0.010134
                     48        49        50        51        52        53   
                   0.66091   0.69659   0.69660   0.71062   0.72246   0.72924
                   0.00000   0.00000   0.00000   0.00000   0.00000   0.00000
                  --------  --------  --------  --------  --------  --------
  0C   1s         0.000067 -0.000008 -0.000001  0.073252 -0.191819 -0.000136
  0C   2s        -0.000618  0.000233  0.000228 -0.158129  1.922505  0.001473
  0C   3s         0.001910 -0.000677 -0.000688  0.496224 -5.349765 -0.004052
  0C   1pz        0.000020  0.176198  0.304222 -0.084983  0.096448 -0.149861
  0C   1px       -0.000007  0.289141 -0.284505 -0.049016  0.055728 -0.256780
  0C   1py       -0.000004  0.265432  0.108111  0.109752 -0.124346 -0.230722
  0C   2pz       -0.000025 -0.307664 -0.531273  0.232948 -0.119576  0.393705
  0C   2px       -0.000027 -0.504794  0.496802  0.134471 -0.069062  0.674287
  0C   2py       -0.000041 -0.463477 -0.188870 -0.301150  0.153523  0.605765
  0C   1dz2      -0.000006 -0.027679 -0.141561  0.000157 -0.000024 -0.022051
  0C   1dxz      -0.000009  0.014770  0.060828 -0.027136  0.011102 -0.068264
  0C   1dyz      -0.000011  0.043792  0.007652  0.060698 -0.024701 -0.042081
  0C   1dx2y2    -0.000015 -0.137333  0.037699  0.031438 -0.012807  0.039743
  0C   1dxy       0.000031  0.058737  0.000487  0.035080 -0.014250 -0.015518
  1Cl  1s         0.000004  0.000938 -0.000930 -0.004718 -0.006995  0.005412
  1Cl  2s        -0.000031 -0.005994  0.005955  0.035708  0.057888 -0.042652
  1Cl  3s         0.000209 -0.024014  0.023340 -0.122157 -0.478302  0.241165
  1Cl  4s        -0.000588  0.293601 -0.288364 -0.040995  1.632428 -0.610932
  1Cl  1pz       -0.017850 -0.005337 -0.055345  0.021899 -0.058006 -0.018634
  1Cl  1px        0.000003  0.108558 -0.106953 -0.180650 -0.066699  0.011276
  1Cl  1py       -0.013726 -0.055797  0.007988 -0.028221  0.075251 -0.120668
  1Cl  2pz       -0.057211 -0.018016 -0.179585  0.071108 -0.187531 -0.055199
  1Cl  2px       -0.000007  0.356429 -0.351134 -0.578972 -0.175736  0.022320
  1Cl  2py       -0.043997 -0.180851  0.025199 -0.091638  0.243262 -0.381779
  1Cl  3pz        0.048224  0.051574  0.209468 -0.086512  0.191299 -0.015859
  1Cl  3px        0.000264 -0.465459  0.458170  0.571644 -0.615265  0.222186
  1Cl  3py        0.037123  0.202342  0.002247  0.111610 -0.247847  0.237730
  1Cl  1dz2      -0.479273  0.059082 -0.318297 -0.124834  0.024307  0.095774
  1Cl  1dxz      -0.042528  0.066224  0.179366 -0.045337  0.078457  0.116365
  1Cl  1dyz       0.144373  0.088542 -0.008918  0.109561 -0.086858 -0.101376
  1Cl  1dx2y2    -0.276661 -0.376801  0.220721  0.273317 -0.087837  0.206664
  1Cl  1dxy      -0.033264  0.167182  0.024705  0.058366 -0.102133  0.328129
  2Cl  1s         0.000000  0.000331  0.001275 -0.004719 -0.006999  0.001761
  2Cl  2s        -0.000002 -0.002115 -0.008156  0.035720  0.057923 -0.013872
  2Cl  3s         0.000090 -0.008471 -0.032582 -0.122175 -0.478461  0.078354
  2Cl  4s        -0.000467  0.103521  0.398820 -0.041120  1.632708 -0.198254
  2Cl  1pz        0.004904  0.028160  0.156363 -0.158792 -0.089064 -0.016171
  2Cl  1px        0.018318 -0.049135 -0.011781  0.077098 -0.022495 -0.090078
  2Cl  1py        0.011995 -0.035436 -0.020329 -0.052677  0.071032 -0.089022
  2Cl  2pz        0.015706  0.092567  0.512485 -0.508500 -0.250654 -0.054086
  2Cl  2px        0.058717 -0.160506 -0.040368  0.247805 -0.086026 -0.279784
  2Cl  2py        0.038444 -0.114943 -0.064507 -0.170089  0.234671 -0.280594
  2Cl  3pz       -0.013017 -0.116176 -0.652669  0.494613 -0.486773  0.090125
  2Cl  3px       -0.049602  0.218656  0.080408 -0.257243  0.352612  0.098282
  2Cl  3py       -0.032366  0.138322  0.034270  0.190272 -0.339587  0.162850
  2Cl  1dz2       0.080236 -0.063753 -0.463402  0.205561 -0.010445  0.183852
  2Cl  1dxz       0.227759  0.133187  0.200983 -0.181931  0.087840  0.335590
  2Cl  1dyz       0.009421  0.124287 -0.012681  0.156048 -0.145863  0.256186
  2Cl  1dx2y2     0.457105 -0.251449  0.061314  0.077041 -0.052491  0.100404
  2Cl  1dxy      -0.251212  0.089506  0.031159  0.047181 -0.024408 -0.193223
  3Cl  1s        -0.000004 -0.001276 -0.000352 -0.004715 -0.006986 -0.007191
  3Cl  2s         0.000026  0.008170  0.002256  0.035688  0.057824  0.056672
  3Cl  3s        -0.000003  0.032133  0.008917 -0.122058 -0.477945 -0.320665
  3Cl  4s        -0.000424 -0.396333 -0.109743 -0.041156  1.631560  0.812889
  3Cl  1pz        0.012941  0.020104 -0.026830  0.091008 -0.046164 -0.056326
  3Cl  1px       -0.018415  0.011085  0.049385  0.077045 -0.022547 -0.077043
  3Cl  1py        0.001788  0.155939  0.038781  0.140277  0.103959  0.069966
  3Cl  2pz        0.041485  0.067919 -0.086681  0.292788 -0.163499 -0.187512
  3Cl  2px       -0.059018  0.038082  0.161350  0.247638 -0.086179 -0.250131
  3Cl  2py        0.005744  0.510536  0.127046  0.448858  0.301300  0.207253
  3Cl  3pz       -0.035089 -0.132663  0.102401 -0.308785  0.450742  0.268632
  3Cl  3px        0.049655 -0.077015 -0.220098 -0.257094  0.352535  0.266515
  3Cl  3py       -0.005075 -0.637776 -0.157717 -0.430370  0.385510  0.126492
  3Cl  1dz2       0.399205 -0.127989 -0.284347 -0.079505 -0.014666 -0.092711
  3Cl  1dxz      -0.184483  0.078663  0.121318  0.000067  0.001800 -0.178886
  3Cl  1dyz      -0.153788  0.192047 -0.016957  0.241849 -0.144075 -0.103303
[...]
   4  :   -0.000796204   -0.001299632   -0.000959256
   5  :   -0.000149167    0.000333285   -0.000257621

  |G| =    0.009195106


The revPBE functional is recognized
Active option DFTDOPT                   ...         5   



------------------- 
Dispersion Gradient 
------------------- 
   1  :   -0.000025649    0.000057253   -0.000043983
   2  :    0.001742873    0.000360472   -0.000278774
   3  :   -0.000797765    0.000601267    0.001500086
   4  :   -0.000794621   -0.001299690   -0.000959288
   5  :   -0.000148797    0.000333484   -0.000257818

  |G| =    0.009201823


The revPBE functional is recognized
Active option DFTDOPT                   ...         5   



------------------- 
Dispersion Gradient 
------------------- 
   1  :   -0.000024990    0.000056268   -0.000043504
   2  :    0.001741116    0.000360661   -0.000278849
   3  :   -0.000795610    0.000601081    0.001499270
   4  :   -0.000795595   -0.001299651   -0.000959214
   5  :   -0.000147213    0.000332394   -0.000256953

  |G| =    0.009192367


The revPBE functional is recognized
Active option DFTDOPT                   ...         5   



------------------- 
Dispersion Gradient 
------------------- 
   1  :   -0.000026200    0.000058268   -0.000045050
   2  :    0.001742735    0.000360237   -0.000278522
   3  :   -0.000795247    0.000601188    0.001499321
   4  :   -0.000795232   -0.001299673   -0.000959331
   5  :   -0.000150764    0.000334393   -0.000258499

  |G| =    0.009204661


Dispersion correction Hessian from Numerical Differentiation: 
                  0          1          2          3          4          5    
      0      -0.000303   0.000000   0.000000   0.000000   0.000000   0.000000
      1       0.000000   0.000000   0.000000   0.000000   0.000000   0.000000
      2       0.000000   0.000000   0.000000   0.000000   0.000000   0.000000
      3       0.000000   0.000000   0.000000   0.000000   0.000000   0.000000
      4       0.000000   0.000000   0.000000   0.000000   0.000000   0.000000
      5       0.000000   0.000000   0.000000   0.000000   0.000000   0.000000
      6       0.000012   0.000001  -0.000057  -0.000190  -0.000005   0.000018
      7       0.000000   0.000000   0.000000   0.000000   0.000000   0.000000
      8       0.000000   0.000000   0.000000   0.000000   0.000000   0.000000
      9       0.000000   0.000000   0.000000   0.000000   0.000000   0.000000
     10       0.000000   0.000000   0.000000   0.000000   0.000000   0.000000
     11       0.000000   0.000000   0.000000   0.000000   0.000000   0.000000
     12       0.000121  -0.000200   0.000155  -0.000162   0.000042  -0.000033
     13       0.000000   0.000000   0.000000   0.000000   0.000000   0.000000
     14       0.000000   0.000000   0.000000   0.000000   0.000000   0.000000
                  6          7          8          9         10         11    
      0       0.000012   0.000000   0.000000   0.000000   0.000000   0.000000
      1       0.000001   0.000000   0.000000   0.000000   0.000000   0.000000
      2      -0.000057   0.000000   0.000000   0.000000   0.000000   0.000000
      3      -0.000190   0.000000   0.000000   0.000000   0.000000   0.000000
      4      -0.000005   0.000000   0.000000   0.000000   0.000000   0.000000
      5       0.000018   0.000000   0.000000   0.000000   0.000000   0.000000
      6       0.000467   0.000000   0.000000   0.000000   0.000000   0.000000
      7       0.000000   0.000000   0.000000   0.000000   0.000000   0.000000
      8       0.000000   0.000000   0.000000   0.000000   0.000000   0.000000
      9       0.000000   0.000000   0.000000   0.000000   0.000000   0.000000
     10       0.000000   0.000000   0.000000   0.000000   0.000000   0.000000
     11       0.000000   0.000000   0.000000   0.000000   0.000000   0.000000
     12      -0.000036  -0.000011  -0.000005  -0.000036   0.000002   0.000012
     13       0.000000   0.000000   0.000000   0.000000   0.000000   0.000000
     14       0.000000   0.000000   0.000000   0.000000   0.000000   0.000000
                  12         13         14    
      0       0.000121   0.000000   0.000000
      1      -0.000200   0.000000   0.000000
      2       0.000155   0.000000   0.000000
      3      -0.000162   0.000000   0.000000
      4       0.000042   0.000000   0.000000
      5      -0.000033   0.000000   0.000000
      6      -0.000036   0.000000   0.000000
      7      -0.000011   0.000000   0.000000
      8      -0.000005   0.000000   0.000000
      9      -0.000036   0.000000   0.000000
     10       0.000002   0.000000   0.000000
     11       0.000012   0.000000   0.000000
     12       0.000355   0.000000   0.000000
     13       0.000000   0.000000   0.000000
     14       0.000000   0.000000   0.000000

done   (      0.3 sec)
gCP correction in the Hessian                    ...  
-----------------
gCP hessian 
from Numerical Differentiation: 
-----------------
                  0          1          2          3          4          5    
      0       0.000008  -0.000015   0.000012  -0.001223  -0.000042   0.000032
      1      -0.000015   0.000035  -0.000026  -0.000042   0.000502   0.000001
      2       0.000012  -0.000026   0.000021   0.000032   0.000001   0.000502
      3      -0.001223  -0.000042   0.000032   0.002303  -0.000071   0.000055
      4      -0.000042   0.000502   0.000001  -0.000071  -0.000668  -0.000004
      5       0.000032   0.000001   0.000502   0.000055  -0.000004  -0.000670
      6       0.000294   0.000091   0.000556  -0.000236   0.000032   0.000235
      7       0.000091   0.000463  -0.000243   0.000032   0.000097  -0.000022
      8       0.000556  -0.000243  -0.000977   0.000235  -0.000022  -0.000065
      9       0.000294  -0.000515  -0.000228  -0.000236  -0.000220  -0.000090
     10      -0.000515  -0.000767  -0.000563  -0.000220  -0.000044  -0.000059
     11      -0.000228  -0.000563   0.000254  -0.000090  -0.000059   0.000076
     12       0.000627   0.000480  -0.000371  -0.000609   0.000300  -0.000232
     13       0.000480  -0.000233   0.000831   0.000300   0.000113   0.000084
     14      -0.000371   0.000831   0.000199  -0.000232   0.000084   0.000156
                  6          7          8          9         10         11    
      0       0.000294   0.000091   0.000556   0.000294  -0.000515  -0.000228
      1       0.000091   0.000463  -0.000243  -0.000515  -0.000767  -0.000563
      2       0.000556  -0.000243  -0.000977  -0.000228  -0.000563   0.000254
      3      -0.000236   0.000032   0.000235  -0.000236  -0.000220  -0.000090
      4       0.000032   0.000097  -0.000022  -0.000220  -0.000044  -0.000059
      5       0.000235  -0.000022  -0.000065  -0.000090  -0.000059   0.000076
      6      -0.000369  -0.000098  -0.000895   0.000100   0.000000   0.000000
      7      -0.000098  -0.000639   0.000283   0.000000  -0.000088  -0.000244
      8      -0.000895   0.000283   0.001973   0.000000  -0.000244  -0.000215
      9       0.000100   0.000000   0.000000  -0.000369   0.000841   0.000320
     10       0.000000  -0.000088  -0.000244   0.000841   0.001670   0.000884
     11       0.000000  -0.000244  -0.000215   0.000320   0.000884  -0.000335
     12       0.000210  -0.000025   0.000104   0.000210  -0.000107  -0.000002
     13      -0.000025   0.000167   0.000226  -0.000107  -0.000771  -0.000018
     14       0.000104   0.000226  -0.000717  -0.000002  -0.000018   0.000221
                  12         13         14    
      0       0.000627   0.000480  -0.000371
      1       0.000480  -0.000233   0.000831
      2      -0.000371   0.000831   0.000199
      3      -0.000609   0.000300  -0.000232
      4       0.000300   0.000113   0.000084
      5      -0.000232   0.000084   0.000156
      6       0.000210  -0.000025   0.000104
      7      -0.000025   0.000167   0.000226
      8       0.000104   0.000226  -0.000717
      9       0.000210  -0.000107  -0.000002
     10      -0.000107  -0.000771  -0.000018
     11      -0.000002  -0.000018   0.000221
     12      -0.000438  -0.000649   0.000502
     13      -0.000649   0.000724  -0.001123
     14       0.000502  -0.001123   0.000140

done   (      0.0 sec)
Dipol derivatives                                ... done   (      0.1 sec)

-------
TIMINGS
-------

Total SCF Hessian time: 0 days 0 hours 0 min 11 sec 
                   F(y)            G[Q(x)]           CPSCF         Total
Table01         0.3  0.03         0.4  0.03         5.0  0.42        12.0 
Table01a        0.3  0.03,        0.4, 0.03,        5.0  0.42        12.0 
Table01b        0.3   2.9,        0.4,  3.4,        5.0  42.1        12.0 

Writing the Hessian file to the disk             ... done


Maximum memory used throughout the entire calculation: 132.4 MB

-----------------------
VIBRATIONAL FREQUENCIES
-----------------------

Scaling factor for frequencies =  1.000000000  (already applied!)

   0:         0.00 cm**-1
   1:         0.00 cm**-1
   2:         0.00 cm**-1
   3:         0.00 cm**-1
   4:         0.00 cm**-1
   5:         0.00 cm**-1
   6:       247.01 cm**-1
   7:       247.19 cm**-1
   8:       353.29 cm**-1
   9:       650.27 cm**-1
  10:       697.34 cm**-1
  11:       697.41 cm**-1
  12:      1174.42 cm**-1
  13:      1174.43 cm**-1
  14:      3055.33 cm**-1


------------
NORMAL MODES
------------

These modes are the Cartesian displacements weighted by the diagonal matrix
M(i,i)=1/sqrt(m[i]) where m[i] is the mass of the displaced atom
Thus, these vectors are normalized but *not* orthogonal

                  0          1          2          3          4          5    
      0       0.000000   0.000000   0.000000   0.000000   0.000000   0.000000
      1       0.000000   0.000000   0.000000   0.000000   0.000000   0.000000
      2       0.000000   0.000000   0.000000   0.000000   0.000000   0.000000
      3       0.000000   0.000000   0.000000   0.000000   0.000000   0.000000
      4       0.000000   0.000000   0.000000   0.000000   0.000000   0.000000
      5       0.000000   0.000000   0.000000   0.000000   0.000000   0.000000
      6       0.000000   0.000000   0.000000   0.000000   0.000000   0.000000
      7       0.000000   0.000000   0.000000   0.000000   0.000000   0.000000
      8       0.000000   0.000000   0.000000   0.000000   0.000000   0.000000
      9       0.000000   0.000000   0.000000   0.000000   0.000000   0.000000
     10       0.000000   0.000000   0.000000   0.000000   0.000000   0.000000
     11       0.000000   0.000000   0.000000   0.000000   0.000000   0.000000
     12       0.000000   0.000000   0.000000   0.000000   0.000000   0.000000
     13       0.000000   0.000000   0.000000   0.000000   0.000000   0.000000
     14       0.000000   0.000000   0.000000   0.000000   0.000000   0.000000
                  6          7          8          9         10         11    
      0       0.037581   0.263600   0.159838  -0.225921   0.080848  -0.743199
      1       0.181974   0.048725  -0.357776   0.505075   0.504666  -0.155758
      2       0.212668  -0.088339   0.276835  -0.390167   0.606477   0.228695
      3       0.057846   0.404670   0.369594   0.130080  -0.019019   0.174436
      4      -0.292922   0.182263   0.152565  -0.033300  -0.015975  -0.009473
      5      -0.419354  -0.048189  -0.118403   0.025805  -0.022408   0.003560
      6      -0.432258  -0.196403  -0.214502  -0.023410   0.030182   0.050087
      7      -0.014812  -0.338972   0.208650  -0.018779  -0.020056   0.003676
      8       0.191168  -0.293889   0.291699   0.133234  -0.138180  -0.093602
      9       0.359881  -0.310147  -0.213943  -0.023525  -0.040204   0.042420
     10       0.237413   0.137869  -0.229466  -0.133813  -0.145231   0.061746
     11       0.145988   0.376228  -0.275244  -0.015434  -0.057244   0.007899
     12       0.063277   0.442331   0.165335  -0.232367   0.058068  -0.533086
     13       0.305000   0.082071  -0.370679   0.519814   0.361848  -0.111880
     14       0.356938  -0.148498   0.286979  -0.401725   0.434907   0.164036
                  12         13         14    
      0      -0.015845   0.064539  -0.028622
      1      -0.046291   0.007791   0.064052
      2      -0.050721  -0.027246  -0.049518
      3      -0.002542   0.010368   0.000026
      4       0.004108  -0.007326  -0.000207
      5       0.001328   0.006767   0.000160
      6       0.001161  -0.003038   0.000115
      7       0.006554   0.003565  -0.000215
      8      -0.008723  -0.009474   0.000097
      9       0.000378  -0.003230   0.000114
     10      -0.013605   0.004250  -0.000149
     11       0.004169   0.000976   0.000184
     12       0.224097  -0.913208   0.332096
     13       0.655102  -0.110035  -0.743149
     14       0.717849   0.385522   0.574516


-----------
IR SPECTRUM
-----------

 Mode    freq (cm**-1)   T**2         TX         TY         TZ
-------------------------------------------------------------------
   6:       247.01    0.004757  (  0.008042   0.044864   0.051768)
   7:       247.19    0.004494  (  0.062802   0.011344  -0.020531)
   8:       353.29    0.368719  (  0.204052  -0.452456   0.349808)
   9:       650.27    6.933506  ( -0.882338   1.965935  -1.513303)
  10:       697.34  184.754755  (  1.384260   8.651581  10.391762)
  11:       697.41  184.726924  (-12.738672  -2.666136   3.917255)
  12:      1174.42   20.221130  ( -1.010595  -2.953968  -3.236341)
  13:      1174.43   20.218642  (  4.117348   0.496178  -1.737785)
  14:      3055.33    0.414054  ( -0.214347   0.480151  -0.370898)

The first frequency considered to be a vibration is 6
The total number of vibrations considered is 9


--------------------------
THERMOCHEMISTRY AT 298.15K
--------------------------

Temperature         ... 298.15 K
Pressure            ... 1.00 atm
Total Mass          ... 119.38 AMU

Throughout the following assumptions are being made:
  (1) The electronic state is orbitally nondegenerate
  (2) There are no thermally accessible electronically excited states
  (3) Hindered rotations indicated by low frequency modes are not
      treated as such but are treated as vibrations and this may
      cause some error
  (4) All equations used are the standard statistical mechanics
      equations for an ideal gas
  (5) All vibrations are strictly harmonic

freq.     247.01  E(vib)   ...       0.31 
freq.     247.19  E(vib)   ...       0.31 
freq.     353.29  E(vib)   ...       0.22 
freq.     650.27  E(vib)   ...       0.08 
freq.     697.34  E(vib)   ...       0.07 
freq.     697.41  E(vib)   ...       0.07 
freq.    1174.42  E(vib)   ...       0.01 
freq.    1174.43  E(vib)   ...       0.01 
freq.    3055.33  E(vib)   ...       0.00 

------------
INNER ENERGY
------------

The inner energy is: U= E(el) + E(ZPE) + E(vib) + E(rot) + E(trans)
    E(el)   - is the total energy from the electronic structure calculation
              = E(kin-el) + E(nuc-el) + E(el-el) + E(nuc-nuc)
    E(ZPE)  - the the zero temperature vibrational energy from the frequency calculation
    E(vib)  - the the finite temperature correction to E(ZPE) due to population
              of excited vibrational states
    E(rot)  - is the rotational thermal energy
    E(trans)- is the translational thermal energy

Summary of contributions to the inner energy U:
Electronic energy                ...  -1418.56439402 Eh
Zero point energy                ...      0.01890124 Eh      11.86 kcal/mol
Thermal vibrational correction   ...      0.00173776 Eh       1.09 kcal/mol
Thermal rotational correction    ...      0.00141627 Eh       0.89 kcal/mol
Thermal translational correction ...      0.00141627 Eh       0.89 kcal/mol
-----------------------------------------------------------------------
Total thermal energy                  -1418.54092248 Eh


Summary of corrections to the electronic energy:
(perhaps to be used in another calculation)
Total thermal correction                  0.00457030 Eh       2.87 kcal/mol
Non-thermal (ZPE) correction              0.01890124 Eh      11.86 kcal/mol
-----------------------------------------------------------------------
Total correction                          0.02347154 Eh      14.73 kcal/mol


--------
ENTHALPY
--------

The enthalpy is H = U + kB*T
                kB is Boltzmann's constant
Total free energy                 ...  -1418.54092248 Eh 
Thermal Enthalpy correction       ...      0.00094421 Eh       0.59 kcal/mol
-----------------------------------------------------------------------
Total Enthalpy                    ...  -1418.53997827 Eh


Note: Only C1 symmetry has been detected, increase convergence thresholds 
      if your molecule has a higher symmetry. Symmetry factor of 1.0 is   
      used for the rotational entropy correction. 
 

Note: Rotational entropy computed according to Herzberg 
Infrared and Raman Spectra, Chapter V,1, Van Nostrand Reinhold, 1945 
Point Group:  C1, Symmetry Number:   1  
Rotational constants in cm-1:     0.104362     0.104358     0.054120 

Vibrational entropy computed according to the QRRHO of S. Grimme
Chem.Eur.J. 2012 18 9955


-------
ENTROPY
-------

The entropy contributions are T*S = T*(S(el)+S(vib)+S(rot)+S(trans))
     S(el)   - electronic entropy
     S(vib)  - vibrational entropy
     S(rot)  - rotational entropy
     S(trans)- translational entropy
The entropies will be listed as mutliplied by the temperature to get
units of energy

Electronic entropy                ...      0.00000000 Eh      0.00 kcal/mol
Vibrational entropy               ...      0.00273183 Eh      1.71 kcal/mol
Rotational entropy                ...      0.01302144 Eh      8.17 kcal/mol
Translational entropy             ...      0.01912210 Eh     12.00 kcal/mol
-----------------------------------------------------------------------
Final entropy term                ...      0.03487537 Eh     21.88 kcal/mol

In case the symmetry of your molecule has not been determined correctly
or in case you have a reason to use a different symmetry number we print 
out the resulting rotational entropy values for sn=1,12 :
 --------------------------------------------------------
|  sn= 1 | S(rot)=       0.01302144 Eh      8.17 kcal/mol|
|  sn= 2 | S(rot)=       0.01236699 Eh      7.76 kcal/mol|
|  sn= 3 | S(rot)=       0.01198416 Eh      7.52 kcal/mol|
|  sn= 4 | S(rot)=       0.01171253 Eh      7.35 kcal/mol|
|  sn= 5 | S(rot)=       0.01150184 Eh      7.22 kcal/mol|
|  sn= 6 | S(rot)=       0.01132970 Eh      7.11 kcal/mol|
|  sn= 7 | S(rot)=       0.01118415 Eh      7.02 kcal/mol|
|  sn= 8 | S(rot)=       0.01105807 Eh      6.94 kcal/mol|
|  sn= 9 | S(rot)=       0.01094687 Eh      6.87 kcal/mol|
|  sn=10 | S(rot)=       0.01084739 Eh      6.81 kcal/mol|
|  sn=11 | S(rot)=       0.01075740 Eh      6.75 kcal/mol|
|  sn=12 | S(rot)=       0.01067524 Eh      6.70 kcal/mol|
 --------------------------------------------------------


-------------------
GIBBS FREE ENERGY
-------------------

The Gibbs free energy is G = H - T*S

Total enthalpy                    ...  -1418.53997827 Eh 
Total entropy correction          ...     -0.03487537 Eh    -21.88 kcal/mol
-----------------------------------------------------------------------
Final Gibbs free energy         ...  -1418.57485364 Eh

For completeness - the Gibbs free energy minus the electronic energy
G-E(el)                           ...     -0.01045962 Eh     -6.56 kcal/mol


Timings for individual modules:

Sum of individual times         ...       33.091 sec (=   0.552 min)
GTO integral calculation        ...        2.118 sec (=   0.035 min)   6.4 %
SCF iterations                  ...       14.388 sec (=   0.240 min)  43.5 %
SCF Gradient evaluation         ...        4.114 sec (=   0.069 min)  12.4 %
Geometry relaxation             ...        0.146 sec (=   0.002 min)   0.4 %
Analytical frequency calculation...       12.325 sec (=   0.205 min)  37.2 %
                             ****ORCA TERMINATED NORMALLY****
TOTAL RUN TIME: 0 days 0 hours 0 minutes 33 seconds 952 msec
