
                                 *****************
                                 * O   R   C   A *
                                 *****************

           --- An Ab Initio, DFT and Semiempirical electronic structure package ---

                  #######################################################
                  #                        -***-                        #
                  #          Department of theory and spectroscopy      #
                  #               Directorship: Frank Neese             #
                  #        Max Planck Institute fuer Kohlenforschung    #
                  #                Kaiser Wilhelm Platz 1               #
                  #                 D-45470 Muelheim/Ruhr               #
                  #                      Germany                        #
                  #                                                     #
                  #                  All rights reserved                #
                  #                        -***-                        #
                  #######################################################


                         Program Version 4.2.1 -  RELEASE  -


 With contributions from (in alphabetic order):
   Daniel Aravena         : Magnetic Suceptibility
   Michael Atanasov       : Ab Initio Ligand Field Theory (pilot matlab implementation)
   Alexander A. Auer      : GIAO ZORA, VPT2
   Ute Becker             : Parallelization
   Giovanni Bistoni       : ED, misc. LED, open-shell LED, HFLD
   Martin Brehm           : Molecular dynamics
   Dmytro Bykov           : SCF Hessian
   Vijay G. Chilkuri      : MRCI spin determinant printing, contributions to CSF-ICE
   Dipayan Datta          : RHF DLPNO-CCSD density
   Achintya Kumar Dutta   : EOM-CC, STEOM-CC
   Dmitry Ganyushin       : Spin-Orbit,Spin-Spin,Magnetic field MRCI
   Miquel Garcia          : C-PCM Hessian, Gaussian charge scheme
   Yang Guo               : DLPNO-NEVPT2, CIM, IAO-localization
   Andreas Hansen         : Spin unrestricted coupled pair/coupled cluster methods
   Benjamin Helmich-Paris : CASSCF linear response (MC-RPA)
   Lee Huntington         : MR-EOM, pCC
   Robert Izsak           : Overlap fitted RIJCOSX, COSX-SCS-MP3, EOM
   Christian Kollmar      : KDIIS, OOCD, Brueckner-CCSD(T), CCSD density
   Simone Kossmann        : Meta GGA functionals, TD-DFT gradient, OOMP2, MP2 Hessian
   Martin Krupicka        : AUTO-CI
   Lucas Lang             : DCDCAS
   Dagmar Lenk            : GEPOL surface, SMD
   Dimitrios Liakos       : Extrapolation schemes; Compound Job, initial MDCI parallelization
   Dimitrios Manganas     : Further ROCIS development; embedding schemes
   Dimitrios Pantazis     : SARC Basis sets
   Taras Petrenko         : DFT Hessian,TD-DFT gradient, ASA, ECA, R-Raman, ABS, FL, XAS/XES, NRVS
   Peter Pinski           : DLPNO-MP2, DLPNO-MP2 Gradient
   Christoph Reimann      : Effective Core Potentials
   Marius Retegan         : Local ZFS, SOC
   Christoph Riplinger    : Optimizer, TS searches, QM/MM, DLPNO-CCSD(T), (RO)-DLPNO pert. Triples
   Tobias Risthaus        : Range-separated hybrids, TD-DFT gradient, RPA, STAB
   Michael Roemelt        : Original ROCIS implementation
   Masaaki Saitow         : Open-shell DLPNO-CCSD energy and density
   Barbara Sandhoefer     : DKH picture change effects
   Avijit Sen             : IP-ROCIS
   Kantharuban Sivalingam : CASSCF convergence, NEVPT2, FIC-MRCI
   Bernardo de Souza      : ESD, SOC TD-DFT
   Georgi Stoychev        : AutoAux, RI-MP2 NMR
   Willem Van den Heuvel  : Paramagnetic NMR
   Boris Wezisla          : Elementary symmetry handling
   Frank Wennmohs         : Technical directorship


 We gratefully acknowledge several colleagues who have allowed us to
 interface, adapt or use parts of their codes:
   Stefan Grimme, W. Hujo, H. Kruse,             : VdW corrections, initial TS optimization,
                  C. Bannwarth                     DFT functionals, gCP, sTDA/sTD-DF
   Ed Valeev, F. Pavosevic, A. Kumar             : LibInt (2-el integral package), F12 methods
   Garnet Chan, S. Sharma, J. Yang, R. Olivares  : DMRG
   Ulf Ekstrom                                   : XCFun DFT Library
   Mihaly Kallay                                 : mrcc  (arbitrary order and MRCC methods)
   Andreas Klamt, Michael Diedenhofen            : otool_cosmo (COSMO solvation model)
   Jiri Pittner, Ondrej Demel                    : Mk-CCSD
   Frank Weinhold                                : gennbo (NPA and NBO analysis)
   Christopher J. Cramer and Donald G. Truhlar   : smd solvation model
   Lars Goerigk                                  : TD-DFT with DH, B97 family of functionals
   V. Asgeirsson, H. Jonsson                     : NEB implementation
   FAccTs GmbH                                   : IRC, NEB, NEB-TS, Multilevel, MM, QM/MM, CI optimization
   S Lehtola, MJT Oliveira, MAL Marques          : LibXC Library


 Your calculation uses the libint2 library for the computation of 2-el integrals
 For citations please refer to: http://libint.valeyev.net

 Your ORCA version has been built with support for libXC version: 4.2.3
 For citations please refer to: https://tddft.org/programs/libxc/

 This ORCA versions uses:
   CBLAS   interface :  Fast vector & matrix operations
   LAPACKE interface :  Fast linear algebra routines
   SCALAPACK package :  Parallel linear algebra routines


Your calculation utilizes the atom-pairwise dispersion correction
with the Becke-Johnson damping scheme (D3BJ)
Cite in your paper:
S.Grimme, S.Ehrlich, L.Goerigk, J Comput Chem, (2011), 32, 1456–1465 
S.Grimme, J.Antony, S.Ehrlich and H.Krieg, J.Chem.Phys., 132, (2010), 154104 
   

Your calculation employs the composite approach B97-3c by Grimme and coworkers.
For the correct reference, please check the publication list of the Grimme group:
http://www.thch.uni-bonn.de/tc/index.php?section=publikationen&subsection=grimme#2017
   

XCFun DFT library Copyright 2009-2010 Ulf Ekstrom and contributors.
See http://admol.org/xcfun for more information. This is free soft-
ware; see the source code for copying conditions. There is ABSOLUTELY
NO WARRANTY; not even for MERCHANTABILITY or FITNESS FOR A PARTICULAR
PURPOSE. For details see the documentation. Scientific users of this 
library should cite U. Ekstrom, L. Visscher, R. Bast, A. J. Thorvald-
sen and K. Ruud; J.Chem.Theor.Comp. 2010, DOI: 10.1021/ct100117s
XCFun Version 0.99 
----- Orbital basis set information -----
Your calculation utilizes the basis: def2-mTZVP
----- AuxJ basis set information -----
Your calculation utilizes the basis: def2-mTZVP/J
cite the ECPs for Ru [Def2-ECP] as follows:
Ce-Yb(ecp-28): M. Dolg, H. Stoll, H.Preuss, J. Chem. Phys., 1989, 90, 1730-1734.
Y-Cd(ecp-28), Hf-Hg(ecp-46): D. Andrae,U. Haeussermann, M. Dolg, H. Stoll, H. Preuss, Theor. Chim. Acta, 1990, 77, 123-141.
In-Sb(ecp-28), Tl-Bi(ecp-46): B. Metz, H. Stoll, M. Dolg, J. Chem. Phys., 2000, 113, 2563-2569.
Te-Xe(ecp-28), Po-Rn(ecp-46): K. A. Peterson, D. Figgen, E. Goll, H. Stoll, M. Dolg, J. Chem. Phys., 2003, 119, 11113-11123.
Rb(ecp-28), Cs(ecp-46): T. Leininger, A. Nicklass, W. Kuechle, H. Stoll, M. Dolg, A. Bergner, Chem. Phys. Lett., 1996, 255, 274-280.
Sr(ecp-28), Ba(ecp-46): M. Kaupp, P. V. Schleyer, H. Stoll and H. Preuss, J. Chem. Phys., 1991, 94, 1360-1366.
La(ecp-46): M. Dolg, H. Stoll, A. Savin, H. Preuss, Theor. Chim. Acta, 1989, 75, 173-194.
Lu(ecp-28): X. Cao, M. Dolg, J. Chem. Phys., 2001, 115, 7348-7355.

ECP parameters for Ru [Def2-ECP] have been obtained from:
TURBOMOLE (7.0.2)

================================================================================
                                        WARNINGS
                       Please study these warnings very carefully!
================================================================================


WARNING: Geometry Optimization
  ===> : Switching off AutoStart
         For restart on a previous wavefunction, please use MOREAD

INFO   : the flag for use of LIBINT has been found!

================================================================================
                                       INPUT FILE
================================================================================
NAME = tris-ethylenediamine-RuII.inp
|  1> ! B97-3c Opt Freq TightOpt TightSCF
|  2> 
|  3> %pal
|  4>  nprocs 12
|  5> end
|  6> 
|  7> *xyz +2 1
|  8> C        2.910335976     -0.474492623      0.527740690
|  9> C        2.910335976      0.474492623     -0.527740690
| 10> N        1.608331352     -0.803056028      1.137600071
| 11> H        3.063678923      1.251237592      0.583116967
| 12> H        3.728597252     -0.676706099      1.092893183
| 13> N        1.608331352      0.803056028     -1.137600071
| 14> H        3.063678923     -1.251237592     -0.583116967
| 15> H        3.728597252      0.676706099     -1.092893183
| 16> Ru       0.000000000      0.000000000      0.000000000
| 17> H        1.569641634     -0.422855378      2.075651942
| 18> H        1.569641634      0.422855378     -2.075651942
| 19> H        1.544888761     -1.809220772      1.251975859
| 20> H        1.544888761      1.809220772     -1.251975859
| 21> C       -1.044245322     -2.757671200     -0.527740690
| 22> C       -1.866090653     -2.283178577      0.527740690
| 23> N       -0.108698755     -1.794383823     -1.137600071
| 24> H       -1.278253953     -3.567412990     -1.092893183
| 25> H       -0.448235920     -3.278842572      0.583116967
| 26> N       -1.499632597     -0.991327795      1.137600071
| 27> H       -2.450343299     -2.890706891      1.092893183
| 28> H       -2.615443002     -2.027604980     -0.583116967
| 29> H       -1.151024316     -1.147921841      2.075651942
| 30> H       -0.418617318     -1.570777219     -2.075651942
| 31> H        0.794386769     -2.242523299     -1.251975859
| 32> H       -2.339275530     -0.433302527      1.251975859
| 33> C       -1.044245322      2.757671200      0.527740690
| 34> C       -1.866090653      2.283178577     -0.527740690
| 35> N       -1.499632597      0.991327795     -1.137600071
| 36> H       -2.450343299      2.890706891     -1.092893183
| 37> H       -2.615443002      2.027604980      0.583116967
| 38> N       -0.108698755      1.794383823      1.137600071
| 39> H       -1.278253953      3.567412990      1.092893183
| 40> H       -0.448235920      3.278842572     -0.583116967
| 41> H        0.794386769      2.242523299      1.251975859
| 42> H       -1.151024316      1.147921841     -2.075651942
| 43> H       -0.418617318      1.570777219      2.075651942
| 44> H       -2.339275530      0.433302527     -1.251975859
| 45> *
| 46> 
| 47>                          ****END OF INPUT****
================================================================================

                       *****************************
                       * Geometry Optimization Run *
                       *****************************

Geometry optimization settings:
Update method            Update   .... BFGS
Choice of coordinates    CoordSys .... Z-matrix Internals
Initial Hessian          InHess   .... Almoef's Model

Convergence Tolerances:
Energy Change            TolE     ....  1.0000e-06 Eh
Max. Gradient            TolMAXG  ....  1.0000e-04 Eh/bohr
RMS Gradient             TolRMSG  ....  3.0000e-05 Eh/bohr
Max. Displacement        TolMAXD  ....  1.0000e-03 bohr
RMS Displacement         TolRMSD  ....  6.0000e-04 bohr
Strict Convergence                ....  False
------------------------------------------------------------------------------
                        ORCA OPTIMIZATION COORDINATE SETUP
------------------------------------------------------------------------------

The optimization will be done in new redundant internal coordinates
Making redundant internal coordinates   ...  (new redundants) done
Evaluating the initial hessian          ...  (Almloef) done
Evaluating the coordinates              ...  done
Calculating the B-matrix                .... done
Calculating the G-matrix                .... done
Diagonalizing the G-matrix              .... done
The first mode is                       ....  192
The number of degrees of freedom        ....  105

    -----------------------------------------------------------------
                    Redundant Internal Coordinates


    -----------------------------------------------------------------
         Definition                    Initial Value    Approx d2E/dq
    -----------------------------------------------------------------
      1. B(C   1,C   0)                  1.4194         0.560892   
      2. B(N   2,C   0)                  1.4748         0.409778   
      3. B(H   3,C   1)                  1.3641         0.131542   
      4. B(H   4,C   0)                  1.0148         0.474662   
      5. B(N   5,C   1)                  1.4748         0.409778   
      6. B(H   6,C   0)                  1.3641         0.131542   
      7. B(H   7,C   1)                  1.0148         0.474662   
      8. B(Ru  8,N   5)                  2.1274         0.377182   
      9. B(Ru  8,N   2)                  2.1274         0.377182   
     10. B(H   9,N   2)                  1.0129         0.428104   
     11. B(H  10,N   5)                  1.0129         0.428104   
     12. B(H  11,N   2)                  1.0146         0.425410   
     13. B(H  12,N   5)                  1.0146         0.425410   
     14. B(C  14,C  13)                  1.4194         0.560892   
     15. B(N  15,Ru  8)                  2.1274         0.377182   
     16. B(N  15,C  13)                  1.4748         0.409778   
     17. B(H  16,C  13)                  1.0148         0.474662   
     18. B(H  17,C  13)                  1.3641         0.131542   
     19. B(N  18,C  14)                  1.4748         0.409778   
     20. B(N  18,Ru  8)                  2.1274         0.377182   
     21. B(H  19,C  14)                  1.0148         0.474662   
     22. B(H  20,C  14)                  1.3641         0.131542   
     23. B(H  21,N  18)                  1.0129         0.428104   
     24. B(H  22,N  15)                  1.0129         0.428104   
     25. B(H  23,N  15)                  1.0146         0.425410   
     26. B(H  24,N  18)                  1.0146         0.425410   
     27. B(C  26,C  25)                  1.4194         0.560892   
     28. B(N  27,C  26)                  1.4748         0.409778   
     29. B(N  27,Ru  8)                  2.1274         0.377182   
     30. B(H  28,C  26)                  1.0148         0.474662   
     31. B(H  29,C  26)                  1.3641         0.131542   
     32. B(N  30,C  25)                  1.4748         0.409778   
     33. B(N  30,Ru  8)                  2.1274         0.377182   
     34. B(H  31,C  25)                  1.0148         0.474662   
     35. B(H  32,C  25)                  1.3641         0.131542   
     36. B(H  33,N  30)                  1.0146         0.425410   
     37. B(H  34,N  27)                  1.0129         0.428104   
     38. B(H  35,N  30)                  1.0129         0.428104   
     39. B(H  36,N  27)                  1.0146         0.425410   
     40. A(N   2,C   0,H   4)          115.9226         0.342695   
     41. A(H   4,C   0,H   6)          104.4424         0.260067   
     42. A(C   1,C   0,H   4)          123.1857         0.363636   
     43. A(C   1,C   0,N   2)          117.1583         0.393621   
     44. A(N   2,C   0,H   6)          108.0064         0.278745   
     45. A(C   1,C   0,H   6)           77.0055         0.294407   
     46. A(C   0,C   1,H   7)          123.1857         0.363636   
     47. A(C   0,C   1,N   5)          117.1583         0.393621   
     48. A(C   0,C   1,H   3)           77.0055         0.294407   
     49. A(H   3,C   1,N   5)          108.0064         0.278745   
     50. A(H   3,C   1,H   7)          104.4424         0.260067   
     51. A(N   5,C   1,H   7)          115.9226         0.342695   
     52. A(C   0,N   2,Ru  8)          111.2357         0.408721   
     53. A(H   9,N   2,H  11)          105.3930         0.301918   
     54. A(Ru  8,N   2,H  11)          112.7893         0.366913   
     55. A(Ru  8,N   2,H   9)          108.9446         0.367310   
     56. A(C   0,N   2,H   9)          109.4541         0.333948   
     57. A(C   0,N   2,H  11)          108.8286         0.333598   
     58. A(C   1,N   5,H  10)          109.4541         0.333948   
     59. A(H  10,N   5,H  12)          105.3930         0.301918   
     60. A(Ru  8,N   5,H  12)          112.7893         0.366913   
     61. A(Ru  8,N   5,H  10)          108.9446         0.367310   
     62. A(C   1,N   5,H  12)          108.8286         0.333598   
     63. A(C   1,N   5,Ru  8)          111.2357         0.408721   
     64. A(N   2,Ru  8,N   5)           81.7720         0.452268   
     65. A(N  18,Ru  8,N  27)           90.3541         0.452268   
     66. A(N   5,Ru  8,N  27)           94.0759         0.452268   
     67. A(N   5,Ru  8,N  15)           94.0759         0.452268   
     68. A(N   2,Ru  8,N  18)           94.0759         0.452268   
     69. A(N   2,Ru  8,N  15)           90.3541         0.452268   
     70. A(N  15,Ru  8,N  27)           94.0759         0.452268   
     71. A(N   2,Ru  8,N  27)          174.1424         0.452268   
     72. A(N   5,Ru  8,N  30)           90.3541         0.452268   
     73. A(N  15,Ru  8,N  18)           81.7720         0.452268   
     74. A(N   5,Ru  8,N  18)          174.1424         0.452268   
     75. A(N   2,Ru  8,N  30)           94.0759         0.452268   
     76. A(N  18,Ru  8,N  30)           94.0759         0.452268   
     77. A(N  27,Ru  8,N  30)           81.7720         0.452268   
     78. A(N  15,Ru  8,N  30)          174.1424         0.452268   
     79. A(N  15,C  13,H  16)          115.9226         0.342695   
     80. A(C  14,C  13,H  16)          123.1857         0.363636   
     81. A(C  14,C  13,N  15)          117.1583         0.393621   
     82. A(H  16,C  13,H  17)          104.4424         0.260067   
     83. A(N  15,C  13,H  17)          108.0064         0.278745   
     84. A(C  14,C  13,H  17)           77.0055         0.294407   
     85. A(H  19,C  14,H  20)          104.4424         0.260067   
     86. A(N  18,C  14,H  20)          108.0064         0.278745   
     87. A(N  18,C  14,H  19)          115.9226         0.342695   
     88. A(C  13,C  14,H  19)          123.1857         0.363636   
     89. A(C  13,C  14,H  20)           77.0055         0.294407   
     90. A(C  13,C  14,N  18)          117.1583         0.393621   
     91. A(Ru  8,N  15,C  13)          111.2357         0.408721   
     92. A(H  22,N  15,H  23)          105.3930         0.301918   
     93. A(C  13,N  15,H  23)          108.8286         0.333598   
     94. A(Ru  8,N  15,H  23)          112.7893         0.366913   
     95. A(C  13,N  15,H  22)          109.4541         0.333948   
     96. A(Ru  8,N  15,H  22)          108.9446         0.367310   
     97. A(H  21,N  18,H  24)          105.3930         0.301918   
     98. A(C  14,N  18,H  24)          108.8286         0.333598   
     99. A(Ru  8,N  18,H  24)          112.7893         0.366913   
    100. A(C  14,N  18,H  21)          109.4541         0.333948   
    101. A(Ru  8,N  18,H  21)          108.9446         0.367310   
    102. A(Ru  8,N  18,C  14)          111.2357         0.408721   
    103. A(H  31,C  25,H  32)          104.4424         0.260067   
    104. A(N  30,C  25,H  32)          108.0064         0.278745   
    105. A(C  26,C  25,H  32)           77.0055         0.294407   
    106. A(N  30,C  25,H  31)          115.9226         0.342695   
    107. A(C  26,C  25,H  31)          123.1857         0.363636   
    108. A(C  26,C  25,N  30)          117.1583         0.393621   
    109. A(C  25,C  26,H  29)           77.0055         0.294407   
    110. A(N  27,C  26,H  28)          115.9226         0.342695   
    111. A(C  25,C  26,H  28)          123.1857         0.363636   
    112. A(C  25,C  26,N  27)          117.1583         0.393621   
    113. A(H  28,C  26,H  29)          104.4424         0.260067   
    114. A(N  27,C  26,H  29)          108.0064         0.278745   
    115. A(Ru  8,N  27,C  26)          111.2357         0.408721   
    116. A(C  26,N  27,H  36)          108.8286         0.333598   
    117. A(Ru  8,N  27,H  36)          112.7893         0.366913   
    118. A(C  26,N  27,H  34)          109.4541         0.333948   
    119. A(Ru  8,N  27,H  34)          108.9446         0.367310   
    120. A(H  34,N  27,H  36)          105.3930         0.301918   
    121. A(H  33,N  30,H  35)          105.3930         0.301918   
    122. A(C  25,N  30,H  35)          109.4541         0.333948   
    123. A(Ru  8,N  30,H  35)          108.9446         0.367310   
    124. A(C  25,N  30,H  33)          108.8286         0.333598   
    125. A(Ru  8,N  30,H  33)          112.7893         0.366913   
    126. A(Ru  8,N  30,C  25)          111.2357         0.408721   
    127. D(H   7,C   1,C   0,H   6)    -67.8387         0.025126   
    128. D(N   5,C   1,C   0,H   4)   -171.6174         0.025126   
    129. D(H   3,C   1,C   0,N   2)     89.4706         0.025126   
    130. D(N   5,C   1,C   0,N   2)    -14.3081         0.025126   
    131. D(H   7,C   1,C   0,H   4)     31.0732         0.025126   
    132. D(N   5,C   1,C   0,H   6)     89.4706         0.025126   
    133. D(H   3,C   1,C   0,H   4)    -67.8387         0.025126   
    134. D(H   7,C   1,C   0,N   2)   -171.6174         0.025126   
    135. D(H   3,C   1,C   0,H   6)   -166.7506         0.025126   
    136. D(H  11,N   2,C   0,C   1)    135.3909         0.015339   
    137. D(H  11,N   2,C   0,H   4)    -65.6451         0.015339   
    138. D(Ru  8,N   2,C   0,H   4)    169.4959         0.015339   
    139. D(Ru  8,N   2,C   0,C   1)     10.5319         0.015339   
    140. D(H   9,N   2,C   0,H   6)    165.7717         0.015339   
    141. D(H   9,N   2,C   0,C   1)   -109.9090         0.015339   
    142. D(H   9,N   2,C   0,H   4)     49.0549         0.015339   
    143. D(H  11,N   2,C   0,H   6)     51.0716         0.015339   
    144. D(Ru  8,N   2,C   0,H   6)    -73.7874         0.015339   
    145. D(H  10,N   5,C   1,H   7)     49.0549         0.015339   
    146. D(H  10,N   5,C   1,H   3)    165.7717         0.015339   
    147. D(Ru  8,N   5,C   1,C   0)     10.5319         0.015339   
    148. D(H  10,N   5,C   1,C   0)   -109.9090         0.015339   
    149. D(H  12,N   5,C   1,C   0)    135.3909         0.015339   
    150. D(H  12,N   5,C   1,H   3)     51.0716         0.015339   
    151. D(H  12,N   5,C   1,H   7)    -65.6451         0.015339   
    152. D(Ru  8,N   5,C   1,H   7)    169.4959         0.015339   
    153. D(Ru  8,N   5,C   1,H   3)    -73.7874         0.015339   
    154. D(N  15,Ru  8,N   2,C   0)     90.5936         0.002297   
    155. D(N  15,Ru  8,N   5,H  10)     27.4993         0.002297   
    156. D(N   5,Ru  8,N   2,H   9)    117.2676         0.002297   
    157. D(N   5,Ru  8,N   2,H  11)   -126.0776         0.002297   
    158. D(N  27,Ru  8,N   5,C   1)    172.3699         0.002297   
    159. D(N  27,Ru  8,N   5,H  12)     49.7658         0.002297   
    160. D(N  18,Ru  8,N   5,C   1)    -48.5806         0.002297   
    161. D(N  15,Ru  8,N   5,H  12)    144.1541         0.002297   
    162. D(N  27,Ru  8,N   5,H  10)    -66.8891         0.002297   
    163. D(N   5,Ru  8,N   2,C   0)     -3.4735         0.002297   
    164. D(N   2,Ru  8,N   5,H  10)    117.2676         0.002297   
    165. D(N  18,Ru  8,N   2,H   9)    -66.8891         0.002297   
    166. D(N  30,Ru  8,N   2,H  11)    144.1541         0.002297   
    167. D(N  30,Ru  8,N   5,H  10)   -148.6653         0.002297   
    168. D(N  30,Ru  8,N   2,H   9)     27.4993         0.002297   
    169. D(N  27,Ru  8,N   2,H   9)     72.1605         0.002297   
    170. D(N  27,Ru  8,N   2,H  11)   -171.1847         0.002297   
    171. D(N  15,Ru  8,N   5,C   1)    -93.2418         0.002297   
    172. D(N  30,Ru  8,N   5,H  12)    -32.0105         0.002297   
    173. D(N  27,Ru  8,N   2,C   0)    -48.5806         0.002297   
    174. D(N   2,Ru  8,N   5,C   1)     -3.4735         0.002297   
    175. D(N  18,Ru  8,N   5,H  10)     72.1605         0.002297   
    176. D(N  18,Ru  8,N   5,H  12)   -171.1847         0.002297   
    177. D(N  15,Ru  8,N   2,H  11)    -32.0105         0.002297   
    178. D(N  18,Ru  8,N   2,C   0)    172.3699         0.002297   
    179. D(N  30,Ru  8,N   5,C   1)     90.5936         0.002297   
    180. D(N   2,Ru  8,N   5,H  12)   -126.0776         0.002297   
    181. D(N  30,Ru  8,N   2,C   0)    -93.2418         0.002297   
    182. D(N  15,Ru  8,N   2,H   9)   -148.6653         0.002297   
    183. D(N  18,Ru  8,N   2,H  11)     49.7658         0.002297   
    184. D(H  19,C  14,C  13,H  16)     31.0732         0.025126   
    185. D(N  18,C  14,C  13,H  17)     89.4706         0.025126   
    186. D(N  18,C  14,C  13,H  16)   -171.6174         0.025126   
    187. D(N  18,C  14,C  13,N  15)    -14.3081         0.025126   
    188. D(H  19,C  14,C  13,H  17)    -67.8387         0.025126   
    189. D(H  19,C  14,C  13,N  15)   -171.6174         0.025126   
    190. D(H  20,C  14,C  13,H  17)   -166.7506         0.025126   
    191. D(H  20,C  14,C  13,H  16)    -67.8387         0.025126   
    192. D(H  20,C  14,C  13,N  15)     89.4706         0.025126   
    193. D(H  23,N  15,C  13,H  17)     51.0716         0.015339   
    194. D(H  23,N  15,C  13,H  16)    -65.6451         0.015339   
    195. D(H  23,N  15,C  13,C  14)    135.3909         0.015339   
    196. D(H  22,N  15,C  13,H  16)     49.0549         0.015339   
    197. D(Ru  8,N  15,C  13,H  17)    -73.7874         0.015339   
    198. D(H  23,N  15,Ru  8,N  18)   -126.0776         0.002297   
    199. D(H  23,N  15,Ru  8,N  30)   -171.1847         0.002297   
    200. D(H  23,N  15,Ru  8,N  27)    144.1541         0.002297   
    201. D(Ru  8,N  15,C  13,C  14)     10.5319         0.015339   
    202. D(H  23,N  15,Ru  8,N   5)     49.7658         0.002297   
    203. D(Ru  8,N  15,C  13,H  16)    169.4959         0.015339   
    204. D(H  22,N  15,C  13,C  14)   -109.9090         0.015339   
    205. D(H  23,N  15,Ru  8,N   2)    -32.0105         0.002297   
    206. D(H  22,N  15,Ru  8,N  30)     72.1605         0.002297   
    207. D(H  22,N  15,Ru  8,N  27)     27.4993         0.002297   
    208. D(H  22,N  15,Ru  8,N  18)    117.2676         0.002297   
    209. D(H  22,N  15,Ru  8,N   2)   -148.6653         0.002297   
    210. D(C  13,N  15,Ru  8,N  30)    -48.5806         0.002297   
    211. D(C  13,N  15,Ru  8,N  18)     -3.4735         0.002297   
    212. D(H  22,N  15,C  13,H  17)    165.7717         0.015339   
    213. D(C  13,N  15,Ru  8,N   5)    172.3699         0.002297   
    214. D(C  13,N  15,Ru  8,N  27)    -93.2418         0.002297   
    215. D(C  13,N  15,Ru  8,N   2)     90.5936         0.002297   
    216. D(H  22,N  15,Ru  8,N   5)    -66.8891         0.002297   
    217. D(H  24,N  18,C  14,H  20)     51.0716         0.015339   
    218. D(H  24,N  18,C  14,H  19)    -65.6451         0.015339   
    219. D(H  24,N  18,C  14,C  13)    135.3909         0.015339   
    220. D(H  21,N  18,C  14,H  19)     49.0549         0.015339   
    221. D(H  21,N  18,C  14,C  13)   -109.9090         0.015339   
    222. D(Ru  8,N  18,C  14,H  20)    -73.7874         0.015339   
    223. D(Ru  8,N  18,C  14,C  13)     10.5319         0.015339   
    224. D(H  24,N  18,Ru  8,N  30)     49.7658         0.002297   
    225. D(H  24,N  18,Ru  8,N  27)    -32.0105         0.002297   
    226. D(H  24,N  18,Ru  8,N  15)   -126.0776         0.002297   
    227. D(H  24,N  18,Ru  8,N   5)   -171.1847         0.002297   
    228. D(H  24,N  18,Ru  8,N   2)    144.1541         0.002297   
    229. D(H  21,N  18,Ru  8,N  30)    -66.8891         0.002297   
    230. D(H  21,N  18,Ru  8,N  27)   -148.6653         0.002297   
    231. D(H  21,N  18,Ru  8,N  15)    117.2676         0.002297   
    232. D(Ru  8,N  18,C  14,H  19)    169.4959         0.015339   
    233. D(H  21,N  18,Ru  8,N   5)     72.1605         0.002297   
    234. D(H  21,N  18,Ru  8,N   2)     27.4993         0.002297   
    235. D(C  14,N  18,Ru  8,N  30)    172.3699         0.002297   
    236. D(H  21,N  18,C  14,H  20)    165.7717         0.015339   
    237. D(C  14,N  18,Ru  8,N  27)     90.5936         0.002297   
    238. D(C  14,N  18,Ru  8,N  15)     -3.4735         0.002297   
    239. D(C  14,N  18,Ru  8,N   5)    -48.5806         0.002297   
    240. D(C  14,N  18,Ru  8,N   2)    -93.2418         0.002297   
    241. D(H  29,C  26,C  25,H  31)    -67.8387         0.025126   
    242. D(H  29,C  26,C  25,N  30)     89.4706         0.025126   
    243. D(H  28,C  26,C  25,H  32)    -67.8387         0.025126   
    244. D(H  28,C  26,C  25,H  31)     31.0732         0.025126   
    245. D(H  28,C  26,C  25,N  30)   -171.6174         0.025126   
    246. D(N  27,C  26,C  25,H  32)     89.4706         0.025126   
    247. D(N  27,C  26,C  25,H  31)   -171.6174         0.025126   
    248. D(H  29,C  26,C  25,H  32)   -166.7506         0.025126   
    249. D(N  27,C  26,C  25,N  30)    -14.3081         0.025126   
    250. D(C  26,N  27,Ru  8,N  18)     90.5936         0.002297   
    251. D(C  26,N  27,Ru  8,N  15)    172.3699         0.002297   
    252. D(C  26,N  27,Ru  8,N   5)    -93.2418         0.002297   
    253. D(C  26,N  27,Ru  8,N   2)    -48.5806         0.002297   
    254. D(H  36,N  27,C  26,H  29)     51.0716         0.015339   
    255. D(H  36,N  27,C  26,H  28)    -65.6451         0.015339   
    256. D(H  36,N  27,C  26,C  25)    135.3909         0.015339   
    257. D(H  34,N  27,C  26,H  29)    165.7717         0.015339   
    258. D(H  34,N  27,C  26,C  25)   -109.9090         0.015339   
    259. D(Ru  8,N  27,C  26,H  29)    -73.7874         0.015339   
    260. D(Ru  8,N  27,C  26,H  28)    169.4959         0.015339   
    261. D(Ru  8,N  27,C  26,C  25)     10.5319         0.015339   
    262. D(H  36,N  27,Ru  8,N  30)   -126.0776         0.002297   
    263. D(H  36,N  27,Ru  8,N  18)    -32.0105         0.002297   
    264. D(H  36,N  27,Ru  8,N  15)     49.7658         0.002297   
    265. D(H  36,N  27,Ru  8,N   5)    144.1541         0.002297   
    266. D(H  36,N  27,Ru  8,N   2)   -171.1847         0.002297   
    267. D(H  34,N  27,Ru  8,N  30)    117.2676         0.002297   
    268. D(H  34,N  27,C  26,H  28)     49.0549         0.015339   
    269. D(H  34,N  27,Ru  8,N  18)   -148.6653         0.002297   
    270. D(H  34,N  27,Ru  8,N  15)    -66.8891         0.002297   
    271. D(H  34,N  27,Ru  8,N   5)     27.4993         0.002297   
    272. D(H  34,N  27,Ru  8,N   2)     72.1605         0.002297   
    273. D(C  26,N  27,Ru  8,N  30)     -3.4735         0.002297   
    274. D(H  35,N  30,C  25,H  31)     49.0549         0.015339   
    275. D(H  35,N  30,C  25,C  26)   -109.9090         0.015339   
    276. D(H  33,N  30,C  25,H  32)     51.0716         0.015339   
    277. D(H  33,N  30,C  25,C  26)    135.3909         0.015339   
    278. D(Ru  8,N  30,C  25,H  32)    -73.7874         0.015339   
    279. D(Ru  8,N  30,C  25,H  31)    169.4959         0.015339   
    280. D(Ru  8,N  30,C  25,C  26)     10.5319         0.015339   
    281. D(H  35,N  30,Ru  8,N  27)    117.2676         0.002297   
    282. D(H  35,N  30,Ru  8,N  18)     27.4993         0.002297   
    283. D(H  35,N  30,Ru  8,N  15)     72.1605         0.002297   
    284. D(H  35,N  30,Ru  8,N   5)   -148.6653         0.002297   
    285. D(H  35,N  30,Ru  8,N   2)    -66.8891         0.002297   
    286. D(H  33,N  30,Ru  8,N  27)   -126.0776         0.002297   
    287. D(H  33,N  30,Ru  8,N  18)    144.1541         0.002297   
    288. D(H  33,N  30,Ru  8,N  15)   -171.1847         0.002297   
    289. D(H  33,N  30,Ru  8,N   5)    -32.0105         0.002297   
    290. D(H  33,N  30,Ru  8,N   2)     49.7658         0.002297   
    291. D(C  25,N  30,Ru  8,N  27)     -3.4735         0.002297   
    292. D(H  33,N  30,C  25,H  31)    -65.6451         0.015339   
    293. D(C  25,N  30,Ru  8,N  18)    -93.2418         0.002297   
    294. D(C  25,N  30,Ru  8,N  15)    -48.5806         0.002297   
    295. D(C  25,N  30,Ru  8,N   5)     90.5936         0.002297   
    296. D(H  35,N  30,C  25,H  32)    165.7717         0.015339   
    297. D(C  25,N  30,Ru  8,N   2)    172.3699         0.002297   
    -----------------------------------------------------------------

Number of atoms                         .... 37
Number of degrees of freedom            .... 297

         *************************************************************
         *                GEOMETRY OPTIMIZATION CYCLE   1            *
         *************************************************************
---------------------------------
CARTESIAN COORDINATES (ANGSTROEM)
---------------------------------
  C      2.910336   -0.474493    0.527741
  C      2.910336    0.474493   -0.527741
  N      1.608331   -0.803056    1.137600
  H      3.063679    1.251238    0.583117
  H      3.728597   -0.676706    1.092893
  N      1.608331    0.803056   -1.137600
  H      3.063679   -1.251238   -0.583117
  H      3.728597    0.676706   -1.092893
  Ru     0.000000    0.000000    0.000000
  H      1.569642   -0.422855    2.075652
  H      1.569642    0.422855   -2.075652
  H      1.544889   -1.809221    1.251976
  H      1.544889    1.809221   -1.251976
  C     -1.044245   -2.757671   -0.527741
  C     -1.866091   -2.283179    0.527741
  N     -0.108699   -1.794384   -1.137600
  H     -1.278254   -3.567413   -1.092893
  H     -0.448236   -3.278843    0.583117
  N     -1.499633   -0.991328    1.137600
  H     -2.450343   -2.890707    1.092893
  H     -2.615443   -2.027605   -0.583117
  H     -1.151024   -1.147922    2.075652
  H     -0.418617   -1.570777   -2.075652
  H      0.794387   -2.242523   -1.251976
  H     -2.339276   -0.433303    1.251976
  C     -1.044245    2.757671    0.527741
  C     -1.866091    2.283179   -0.527741
  N     -1.499633    0.991328   -1.137600
  H     -2.450343    2.890707   -1.092893
  H     -2.615443    2.027605    0.583117
  N     -0.108699    1.794384    1.137600
  H     -1.278254    3.567413    1.092893
  H     -0.448236    3.278843   -0.583117
  H      0.794387    2.242523    1.251976
  H     -1.151024    1.147922   -2.075652
  H     -0.418617    1.570777    2.075652
  H     -2.339276    0.433303   -1.251976

----------------------------
CARTESIAN COORDINATES (A.U.)
----------------------------
  NO LB      ZA    FRAG     MASS         X           Y           Z
   0 C     6.0000    0    12.011    5.499738   -0.896661    0.997285
   1 C     6.0000    0    12.011    5.499738    0.896661   -0.997285
   2 N     7.0000    0    14.007    3.039306   -1.517556    2.149753
   3 H     1.0000    0     1.008    5.789514    2.364496    1.101931
   4 H     1.0000    0     1.008    7.046028   -1.278789    2.065269
   5 N     7.0000    0    14.007    3.039306    1.517556   -2.149753
   6 H     1.0000    0     1.008    5.789514   -2.364496   -1.101931
   7 H     1.0000    0     1.008    7.046028    1.278789   -2.065269
   8 Ru   16.0000*   0   101.070    0.000000    0.000000    0.000000
   9 H     1.0000    0     1.008    2.966193   -0.799081    3.922414
  10 H     1.0000    0     1.008    2.966193    0.799081   -3.922414
  11 H     1.0000    0     1.008    2.919417   -3.418932    2.365891
  12 H     1.0000    0     1.008    2.919417    3.418932   -2.365891
  13 C     6.0000    0    12.011   -1.973338   -5.211243   -0.997285
  14 C     6.0000    0    12.011   -3.526400   -4.314582    0.997285
  15 N     7.0000    0    14.007   -0.205411   -3.390894   -2.149753
  16 H     1.0000    0     1.008   -2.415550   -6.741434   -2.065269
  17 H     1.0000    0     1.008   -0.847043   -6.196114    1.101931
  18 N     7.0000    0    14.007   -2.833895   -1.873338    2.149753
  19 H     1.0000    0     1.008   -4.630478   -5.462644    2.065269
  20 H     1.0000    0     1.008   -4.942471   -3.831618   -1.101931
  21 H     1.0000    0     1.008   -2.175121   -2.169258    3.922414
  22 H     1.0000    0     1.008   -0.791072   -2.968339   -3.922414
  23 H     1.0000    0     1.008    1.501173   -4.237755   -2.365891
  24 H     1.0000    0     1.008   -4.420590   -0.818823    2.365891
  25 C     6.0000    0    12.011   -1.973338    5.211243    0.997285
  26 C     6.0000    0    12.011   -3.526400    4.314582   -0.997285
  27 N     7.0000    0    14.007   -2.833895    1.873338   -2.149753
  28 H     1.0000    0     1.008   -4.630478    5.462644   -2.065269
  29 H     1.0000    0     1.008   -4.942471    3.831618    1.101931
  30 N     7.0000    0    14.007   -0.205411    3.390894    2.149753
  31 H     1.0000    0     1.008   -2.415550    6.741434    2.065269
  32 H     1.0000    0     1.008   -0.847043    6.196114   -1.101931
  33 H     1.0000    0     1.008    1.501173    4.237755    2.365891
  34 H     1.0000    0     1.008   -2.175121    2.169258   -3.922414
  35 H     1.0000    0     1.008   -0.791072    2.968339    3.922414
  36 H     1.0000    0     1.008   -4.420590    0.818823   -2.365891
* core charge reduced due to ECP

--------------------------------
INTERNAL COORDINATES (ANGSTROEM)
--------------------------------
 C      0   0   0     0.000000000000     0.00000000     0.00000000
 C      1   0   0     1.419370966538     0.00000000     0.00000000
 N      1   2   0     1.474821486356   117.15832031     0.00000000
 H      2   1   3     1.364130323824    77.00551951    89.47062010
 H      1   2   3     1.014809906348   123.18574014   202.69068394
 N      2   1   3     1.474821486356   117.15832031   345.69187529
 H      1   2   3     1.364130323824    77.00551951   103.77874481
 H      2   1   3     1.014809906348   123.18574014   188.38255923
 Ru     3   1   2     2.127383990603   111.23570514    10.53192256
 H      3   1   2     1.012912010604   109.45409930   250.09098824
 H      6   2   1     1.012912010604   109.45409930   250.09098824
 H      3   1   2     1.014630117482   108.82858918   135.39093848
 H      6   2   1     1.014630117482   108.82858918   135.39093848
 C      9   3   1     2.995614957853    90.58697210   117.90950504
 C     14   9   3     1.419370966624    76.29587383   100.00141230
 N     14   9   3     1.474821485573    41.44834268   270.36492308
 H     14   9   3     1.014809906435   155.92866115   246.66184723
 H     14   9   3     1.364130323826    93.20681022    24.21110427
 N     15  14   9     1.474821485589   117.15832032   352.84593764
 H     15  14   9     1.014809906837   123.18574015   195.53662154
 H     15  14   9     1.364130323888    77.00551952    96.62468245
 H     19  15  14     1.012912010745   109.45409933   250.09098828
 H     16  14   9     1.012912010853   109.45409930   239.55906573
 H     16  14   9     1.014630117081   108.82858920   124.85901592
 H     19  15  14     1.014630117601   108.82858922   135.39093847
 C      9   3   1     2.995614957853   121.12019842   270.83965479
 C     26   9   3     1.419370966624    76.29587383   180.73672653
 N     27  26   9     1.474821485589   117.15832032   352.84593764
 H     27  26   9     1.014809906837   123.18574015   195.53662154
 H     27  26   9     1.364130323888    77.00551952    96.62468245
 N     26   9   3     1.474821485573    41.44834268   351.10023731
 H     26   9   3     1.014809906435   155.92866115   327.39716145
 H     26   9   3     1.364130323826    93.20681022   104.94641850
 H     31  26   9     1.014630117081   108.82858920   124.85901592
 H     28  27  26     1.012912010745   109.45409933   250.09098828
 H     31  26   9     1.012912010853   109.45409930   239.55906573
 H     28  27  26     1.014630117601   108.82858922   135.39093847

---------------------------
INTERNAL COORDINATES (A.U.)
---------------------------
 C      0   0   0     0.000000000000     0.00000000     0.00000000
 C      1   0   0     2.682222409197     0.00000000     0.00000000
 N      1   2   0     2.787008705635   117.15832031     0.00000000
 H      2   1   3     2.577832723005    77.00551951    89.47062010
 H      1   2   3     1.917712800987   123.18574014   202.69068394
 N      2   1   3     2.787008705635   117.15832031   345.69187529
 H      1   2   3     2.577832723005    77.00551951   103.77874481
 H      2   1   3     1.917712800987   123.18574014   188.38255923
 Ru     3   1   2     4.020173123928   111.23570514    10.53192256
 H      3   1   2     1.914126297801   109.45409930   250.09098824
 H      6   2   1     1.914126297801   109.45409930   250.09098824
 H      3   1   2     1.917373049270   108.82858918   135.39093848
 H      6   2   1     1.917373049270   108.82858918   135.39093848
 C      9   3   1     5.660891873019    90.58697210   117.90950504
 C     14   9   3     2.682222409358    76.29587383   100.00141230
 N     14   9   3     2.787008704155    41.44834268   270.36492308
 H     14   9   3     1.917712801153   155.92866115   246.66184723
 H     14   9   3     2.577832723008    93.20681022    24.21110427
 N     15  14   9     2.787008704186   117.15832032   352.84593764
 H     15  14   9     1.917712801911   123.18574015   195.53662154
 H     15  14   9     2.577832723126    77.00551952    96.62468245
 H     19  15  14     1.914126298067   109.45409933   250.09098828
 H     16  14   9     1.914126298272   109.45409930   239.55906573
 H     16  14   9     1.917373048512   108.82858920   124.85901592
 H     19  15  14     1.917373049495   108.82858922   135.39093847
 C      9   3   1     5.660891873019   121.12019842   270.83965479
 C     26   9   3     2.682222409358    76.29587383   180.73672653
 N     27  26   9     2.787008704186   117.15832032   352.84593764
 H     27  26   9     1.917712801911   123.18574015   195.53662154
 H     27  26   9     2.577832723126    77.00551952    96.62468245
 N     26   9   3     2.787008704155    41.44834268   351.10023731
 H     26   9   3     1.917712801153   155.92866115   327.39716145
 H     26   9   3     2.577832723008    93.20681022   104.94641850
 H     31  26   9     1.917373048512   108.82858920   124.85901592
 H     28  27  26     1.914126298067   109.45409933   250.09098828
 H     31  26   9     1.914126298272   109.45409930   239.55906573
 H     28  27  26     1.917373049495   108.82858922   135.39093847

---------------------
BASIS SET INFORMATION
---------------------
There are 4 groups of distinct atoms

 Group   1 Type C   : 11s6p1d contracted to 5s3p1d pattern {62111/411/1}
 Group   2 Type N   : 11s6p1d contracted to 5s3p1d pattern {62111/411/1}
 Group   3 Type H   : 5s contracted to 3s pattern {311}
 Group   4 Type Ru  : 7s7p5d contracted to 6s4p3d pattern {211111/4111/311}

Atom   0C    basis set group =>   1
Atom   1C    basis set group =>   1
Atom   2N    basis set group =>   2
Atom   3H    basis set group =>   3
Atom   4H    basis set group =>   3
Atom   5N    basis set group =>   2
Atom   6H    basis set group =>   3
Atom   7H    basis set group =>   3
Atom   8Ru   basis set group =>   4
Atom   9H    basis set group =>   3
Atom  10H    basis set group =>   3
Atom  11H    basis set group =>   3
Atom  12H    basis set group =>   3
Atom  13C    basis set group =>   1
Atom  14C    basis set group =>   1
Atom  15N    basis set group =>   2
Atom  16H    basis set group =>   3
Atom  17H    basis set group =>   3
Atom  18N    basis set group =>   2
Atom  19H    basis set group =>   3
Atom  20H    basis set group =>   3
Atom  21H    basis set group =>   3
Atom  22H    basis set group =>   3
Atom  23H    basis set group =>   3
Atom  24H    basis set group =>   3
Atom  25C    basis set group =>   1
Atom  26C    basis set group =>   1
Atom  27N    basis set group =>   2
Atom  28H    basis set group =>   3
Atom  29H    basis set group =>   3
Atom  30N    basis set group =>   2
Atom  31H    basis set group =>   3
Atom  32H    basis set group =>   3
Atom  33H    basis set group =>   3
Atom  34H    basis set group =>   3
Atom  35H    basis set group =>   3
Atom  36H    basis set group =>   3
---------------------------------
AUXILIARY/J BASIS SET INFORMATION
---------------------------------
There are 4 groups of distinct atoms

 Group   1 Type C   : 8s3p3d contracted to 6s3p3d pattern {311111/111/111}
 Group   2 Type N   : 8s3p3d contracted to 6s3p3d pattern {311111/111/111}
 Group   3 Type H   : 5s2p contracted to 3s1p pattern {311/2}
 Group   4 Type Ru  : 11s5p5d3f3g contracted to 8s5p5d2f3g pattern {41111111/11111/11111/21/111}

Atom   0C    basis set group =>   1
Atom   1C    basis set group =>   1
Atom   2N    basis set group =>   2
Atom   3H    basis set group =>   3
Atom   4H    basis set group =>   3
Atom   5N    basis set group =>   2
Atom   6H    basis set group =>   3
Atom   7H    basis set group =>   3
Atom   8Ru   basis set group =>   4
Atom   9H    basis set group =>   3
Atom  10H    basis set group =>   3
Atom  11H    basis set group =>   3
Atom  12H    basis set group =>   3
Atom  13C    basis set group =>   1
Atom  14C    basis set group =>   1
Atom  15N    basis set group =>   2
Atom  16H    basis set group =>   3
Atom  17H    basis set group =>   3
Atom  18N    basis set group =>   2
Atom  19H    basis set group =>   3
Atom  20H    basis set group =>   3
Atom  21H    basis set group =>   3
Atom  22H    basis set group =>   3
Atom  23H    basis set group =>   3
Atom  24H    basis set group =>   3
Atom  25C    basis set group =>   1
Atom  26C    basis set group =>   1
Atom  27N    basis set group =>   2
Atom  28H    basis set group =>   3
Atom  29H    basis set group =>   3
Atom  30N    basis set group =>   2
Atom  31H    basis set group =>   3
Atom  32H    basis set group =>   3
Atom  33H    basis set group =>   3
Atom  34H    basis set group =>   3
Atom  35H    basis set group =>   3
Atom  36H    basis set group =>   3
-------------------------
ECP PARAMETER INFORMATION
-------------------------

 Group 1, Type Ru ECP Def2-ECP (replacing 28 core electrons, lmax=3)

Atom   8Ru   ECP group =>   1



           ************************************************************
           *        Program running with 12 parallel MPI-processes    *
           *              working on a common directory               *
           ************************************************************
------------------------------------------------------------------------------
                           ORCA GTO INTEGRAL CALCULATION
                           -- RI-GTO INTEGRALS CHOSEN --
------------------------------------------------------------------------------

                         BASIS SET STATISTICS AND STARTUP INFO

Gaussian basis set:
 # of primitive gaussian shells          ...  355
 # of primitive gaussian functions       ...  581
 # of contracted shells                  ...  193
 # of contracted basis functions         ...  333
 Highest angular momentum                ...    2
 Maximum contraction depth               ...    6
Auxiliary gaussian basis set:
 # of primitive gaussian shells          ...  363
 # of primitive gaussian functions       ...  747
 # of contracted shells                  ...  263
 # of contracted aux-basis functions     ...  593
 Highest angular momentum                ...    4
 Maximum contraction depth               ...    4
Ratio of auxiliary to basis functions    ...  1.78
Integral package used                  ... LIBINT
 One Electron integrals                  
   ECP integrals                         ... done
 Ordering auxiliary basis shells         ... done
 Integral threshhold             Thresh  ...  2.500e-11
 Primitive cut-off               TCut    ...  2.500e-12
 Pre-screening matrix                    ... done
 Shell pair data                         ... 
 Ordering of the shell pairs             ... done (   0.005 sec) 16251 of 18721 pairs
 Determination of significant pairs      ... done (   0.000 sec)
 Creation of shell pair data             ... done (   0.003 sec)
 Storage of shell pair data              ... done (   0.045 sec)
 Shell pair data done in (   0.053 sec)
 Computing two index integrals           ... done
 Cholesky decomposition of the V-matrix  ... done


Timings:
 Total evaluation time                   ...   1.298 sec (  0.022 min)
 One electron matrix time                ...   0.916 sec (  0.015 min) = 70.6%
 Schwartz matrix evaluation time         ...   0.239 sec (  0.004 min) = 18.4%
 Two index repulsion integral time       ...   0.023 sec (  0.000 min) =  1.7%
 Cholesky decomposition of V             ...   0.046 sec (  0.001 min) =  3.5%
 Three index repulsion integral time     ...   0.000 sec (  0.000 min) =  0.0%



           ************************************************************
           *        Program running with 12 parallel MPI-processes    *
           *              working on a common directory               *
           ************************************************************
-------------------------------------------------------------------------------
                                 ORCA SCF
-------------------------------------------------------------------------------

------------
SCF SETTINGS
------------
Hamiltonian:
 Density Functional     Method          .... DFT(GTOs)
 Exchange Functional    Exchange        .... B973C
 Correlation Functional Correlation     .... B973C
 Gradients option       PostSCFGGA      .... off
   Density functional embedding theory  .... OFF
 RI-approximation to the Coulomb term is turned on
   Number of auxiliary basis functions  .... 593


General Settings:
 Integral files         IntName         .... tris-ethylenediamine-RuII
 Hartree-Fock type      HFTyp           .... RHF
 Total Charge           Charge          ....    2
 Multiplicity           Mult            ....    1
 Number of Electrons    NEL             ....  116
 Basis Dimension        Dim             ....  333
 Nuclear Repulsion      ENuc            ....   1178.1244095940 Eh

Convergence Acceleration:
 DIIS                   CNVDIIS         .... on
   Start iteration      DIISMaxIt       ....    12
   Startup error        DIISStart       ....  0.200000
   # of expansion vecs  DIISMaxEq       ....     5
   Bias factor          DIISBfac        ....   1.050
   Max. coefficient     DIISMaxC        ....  10.000
 Newton-Raphson         CNVNR           .... off
 SOSCF                  CNVSOSCF        .... off
 Level Shifting         CNVShift        .... on
   Level shift para.    LevelShift      ....    0.2500
   Turn off err/grad.   ShiftErr        ....    0.0010
 Zerner damping         CNVZerner       .... off
 Static damping         CNVDamp         .... on
   Fraction old density DampFac         ....    0.7000
   Max. Damping (<1)    DampMax         ....    0.9800
   Min. Damping (>=0)   DampMin         ....    0.0000
   Turn off err/grad.   DampErr         ....    0.1000
 Fernandez-Rico         CNVRico         .... off

SCF Procedure:
 Maximum # iterations   MaxIter         ....   125
 SCF integral mode      SCFMode         .... Direct
   Integral package                     .... LIBINT
 Reset frequency        DirectResetFreq ....    20
 Integral Threshold     Thresh          ....  2.500e-11 Eh
 Primitive CutOff       TCut            ....  2.500e-12 Eh

Convergence Tolerance:
 Convergence Check Mode ConvCheckMode   .... Total+1el-Energy
 Convergence forced     ConvForced      .... 0
 Energy Change          TolE            ....  1.000e-08 Eh
 1-El. energy change                    ....  1.000e-05 Eh
 DIIS Error             TolErr          ....  5.000e-07


Diagonalization of the overlap matrix:
Smallest eigenvalue                        ... 2.241e-04
Time for diagonalization                   ...    0.056 sec
Threshold for overlap eigenvalues          ... 1.000e-08
Number of eigenvalues below threshold      ... 0
Time for construction of square roots      ...    0.058 sec
Total time needed                          ...    0.115 sec

--------------------------------
INITIAL GUESS: MINIMAL BASIS EHT
--------------------------------
The minimal basis has 97 functions
EHT matrix was diagonalized
Basis set overlap was calculated now projecting the orbitals
Using GuessMode=FMatrix for the initial guess
C*T matrix was formed
Effective Fockian was calculated
Effective Fockian was diagonalized
Initial density was built
                      ------------------
                      INITIAL GUESS DONE
                      ------------------
-------------------
DFT GRID GENERATION
-------------------

General Integration Accuracy     IntAcc      ...  4.340
Radial Grid Type                 RadialGrid  ... Gauss-Chebyshev
Angular Grid (max. acc.)         AngularGrid ... Lebedev-194
Angular grid pruning method      GridPruning ... 3 (G Style)
Weight generation scheme         WeightScheme... Becke
Basis function cutoff            BFCut       ...    1.0000e-11
Integration weight cutoff        WCut        ...    1.0000e-14
Grids for H and He will be reduced by one unit

# of grid points (after initial pruning)     ...  82432 (   0.0 sec)
# of grid points (after weights+screening)   ...  72176 (   0.2 sec)
nearest neighbour list constructed           ...    0.0 sec
Grid point re-assignment to atoms done       ...    0.0 sec
Grid point division into batches done        ...    0.2 sec
Reduced shell lists constructed in    0.4 sec

Total number of grid points                  ...    72176
Total number of batches                      ...     1147
Average number of points per batch           ...       62
Average number of grid points per atom       ...     1951
Average number of shells per batch           ...   119.08 (61.70%)
Average number of basis functions per batch  ...   212.03 (63.67%)
Average number of large shells per batch     ...    88.29 (74.14%)
Average number of large basis fcns per batch ...   158.47 (74.74%)
Maximum spatial batch extension              ...  15.46, 15.88, 14.77 au
Average spatial batch extension              ...   0.14,  0.15,  0.15 au

Time for grid setup =    0.581 sec

--------------
SCF ITERATIONS
--------------
ITER       Energy         Delta-E        Max-DP      RMS-DP      [F,P]     Damp
               ***  Starting incremental Fock matrix formation  ***
  0   -662.6580728647   0.000000000000 0.38289233  0.00620948  4.5374451 0.7000
  1   -663.5300877067  -0.872014842042 0.27753933  0.00287188  3.1496171 0.7000
  2   -664.0989979987  -0.568910292036 0.22186588  0.00223607  2.1957714 0.7000
  3   -664.5035784760  -0.404580477261 0.15339183  0.00169040  1.5351503 0.7000
  4   -664.7840909617  -0.280512485697 0.10451724  0.00119136  1.0733313 0.7000
  5   -664.9803153922  -0.196224430474 0.07503434  0.00082786  0.7497695 0.7000
  6   -665.1177493561  -0.137433963954 0.05571469  0.00058160  0.5235550 0.7000
  7   -665.2139088793  -0.096159523133 0.04107143  0.00041363  0.3657198 0.7000
  8   -665.2812222223  -0.067313343068 0.02957041  0.00029586  0.2556116 0.7000
                               ***Turning on DIIS***
  9   -665.3283449298  -0.047122707437 0.02094770  0.00021131  0.1787164 0.7000
 10   -665.3613319282  -0.032986998466 0.01499449  0.00015195  0.1249619 0.7000
 11   -665.3844242046  -0.023092276348 0.03596592  0.00036232  0.0874243 0.0000
 12   -665.4383128398  -0.053888635209 0.00202316  0.00001979  0.0002905 0.0000
 13   -665.4383117600   0.000001079790 0.00032956  0.00000979  0.0008576 0.0000
 14   -665.4383136742  -0.000001914233 0.00003635  0.00000144  0.0000267 0.0000
                 **** Energy Check signals convergence ****

               *****************************************************
               *                     SUCCESS                       *
               *           SCF CONVERGED AFTER  15 CYCLES          *
               *****************************************************

Setting up the final grid:

General Integration Accuracy     IntAcc      ...  4.670
Radial Grid Type                 RadialGrid  ... Gauss-Chebyshev
Angular Grid (max. acc.)         AngularGrid ... Lebedev-302
Angular grid pruning method      GridPruning ... 3 (G Style)
Weight generation scheme         WeightScheme... Becke
Basis function cutoff            BFCut       ...    1.0000e-11
Integration weight cutoff        WCut        ...    1.0000e-14
Grids for H and He will be reduced by one unit

# of grid points (after initial pruning)     ... 166514 (   0.0 sec)
# of grid points (after weights+screening)   ... 143808 (   0.4 sec)
nearest neighbour list constructed           ...    0.0 sec
Grid point re-assignment to atoms done       ...    0.0 sec
Grid point division into batches done        ...    0.5 sec
Reduced shell lists constructed in    0.8 sec

Total number of grid points                  ...   143808
Total number of batches                      ...     2260
Average number of points per batch           ...       63
Average number of grid points per atom       ...     3887
Average number of shells per batch           ...   116.12 (60.17%)
Average number of basis functions per batch  ...   206.67 (62.06%)
Average number of large shells per batch     ...    85.51 (73.64%)
Average number of large basis fcns per batch ...   153.77 (74.41%)
Maximum spatial batch extension              ...  14.01, 16.59, 13.58 au
Average spatial batch extension              ...   0.11,  0.12,  0.12 au

Final grid set up in    1.7 sec
Final integration                            ... done (   1.1 sec)
Change in XC energy                          ...    -0.000329011
Integrated number of electrons               ...   116.001317847
Previous integrated no of electrons          ...   116.001202933

----------------
TOTAL SCF ENERGY
----------------

Total Energy       :         -665.43864269 Eh          -18107.50604 eV

Components:
Nuclear Repulsion  :         1178.12440959 Eh           32058.39500 eV
Electronic Energy  :        -1843.56305229 Eh          -50165.90104 eV
One Electron Energy:        -3247.43821941 Eh          -88367.28646 eV
Two Electron Energy:         1403.87516713 Eh           38201.38542 eV

Virial components:
Potential Energy   :        -1268.37807588 Eh          -34514.32212 eV
Kinetic Energy     :          602.93943318 Eh           16406.81608 eV
Virial Ratio       :            2.10365753


DFT components:
N(Alpha)           :       58.000658923443 electrons
N(Beta)            :       58.000658923443 electrons
N(Total)           :      116.001317846886 electrons
E(XC)              :      -92.463390015027 Eh       
DFET-embed. en.    :        0.000000000000 Eh       

---------------
SCF CONVERGENCE
---------------

  Last Energy change         ...   -9.1891e-09  Tolerance :   1.0000e-08
  Last MAX-Density change    ...    1.5184e-05  Tolerance :   1.0000e-07
  Last RMS-Density change    ...    5.9337e-07  Tolerance :   5.0000e-09
  Last DIIS Error            ...    1.8738e-05  Tolerance :   5.0000e-07

             **** THE GBW FILE WAS UPDATED (tris-ethylenediamine-RuII.gbw) ****
             **** DENSITY FILE WAS UPDATED (tris-ethylenediamine-RuII.scfp) ****
             **** ENERGY FILE WAS UPDATED (tris-ethylenediamine-RuII.en.tmp) ****
             **** THE GBW FILE WAS UPDATED (tris-ethylenediamine-RuII.gbw) ****
             **** DENSITY FILE WAS UPDATED (tris-ethylenediamine-RuII.scfp) ****
----------------
ORBITAL ENERGIES
----------------

  NO   OCC          E(Eh)            E(eV) 
   0   2.0000     -14.305807      -389.2808 
   1   2.0000     -14.305803      -389.2807 
   2   2.0000     -14.305796      -389.2805 
   3   2.0000     -14.305793      -389.2804 
   4   2.0000     -14.305755      -389.2794 
   5   2.0000     -14.305752      -389.2793 
   6   2.0000     -10.210489      -277.8415 
   7   2.0000     -10.210487      -277.8415 
   8   2.0000     -10.210366      -277.8382 
   9   2.0000     -10.210173      -277.8329 
  10   2.0000     -10.210172      -277.8329 
  11   2.0000     -10.210051      -277.8296 
  12   2.0000      -3.093056       -84.1663 
  13   2.0000      -1.978023       -53.8248 
  14   2.0000      -1.978015       -53.8245 
  15   2.0000      -1.971619       -53.6505 
  16   2.0000      -1.147538       -31.2261 
  17   2.0000      -1.139093       -30.9963 
  18   2.0000      -1.139081       -30.9960 
  19   2.0000      -1.112025       -30.2597 
  20   2.0000      -1.111999       -30.2590 
  21   2.0000      -1.111441       -30.2439 
  22   2.0000      -0.972634       -26.4667 
  23   2.0000      -0.970090       -26.3975 
  24   2.0000      -0.970062       -26.3967 
  25   2.0000      -0.820335       -22.3224 
  26   2.0000      -0.815932       -22.2026 
  27   2.0000      -0.815873       -22.2010 
  28   2.0000      -0.771011       -20.9803 
  29   2.0000      -0.770962       -20.9790 
  30   2.0000      -0.759911       -20.6782 
  31   2.0000      -0.755674       -20.5629 
  32   2.0000      -0.755662       -20.5626 
  33   2.0000      -0.752510       -20.4769 
  34   2.0000      -0.745736       -20.2925 
  35   2.0000      -0.735516       -20.0144 
  36   2.0000      -0.735503       -20.0141 
  37   2.0000      -0.700141       -19.0518 
  38   2.0000      -0.687731       -18.7141 
  39   2.0000      -0.687697       -18.7132 
  40   2.0000      -0.675187       -18.3728 
  41   2.0000      -0.675125       -18.3711 
  42   2.0000      -0.672991       -18.3130 
  43   2.0000      -0.646101       -17.5813 
  44   2.0000      -0.640673       -17.4336 
  45   2.0000      -0.640605       -17.4317 
  46   2.0000      -0.602489       -16.3946 
  47   2.0000      -0.602424       -16.3928 
  48   2.0000      -0.601768       -16.3749 
  49   2.0000      -0.552816       -15.0429 
  50   2.0000      -0.552792       -15.0422 
  51   2.0000      -0.552738       -15.0408 
  52   2.0000      -0.449014       -12.2183 
  53   2.0000      -0.448918       -12.2157 
  54   2.0000      -0.447384       -12.1739 
  55   2.0000      -0.410826       -11.1791 
  56   2.0000      -0.410741       -11.1768 
  57   2.0000      -0.405366       -11.0306 
  58   0.0000      -0.308158        -8.3854 
  59   0.0000      -0.289226        -7.8702 
  60   0.0000      -0.289187        -7.8692 
  61   0.0000      -0.277497        -7.5511 
  62   0.0000      -0.277451        -7.5498 
  63   0.0000      -0.269522        -7.3341 
  64   0.0000      -0.258929        -7.0458 
  65   0.0000      -0.245507        -6.6806 
  66   0.0000      -0.245428        -6.6784 
  67   0.0000      -0.204549        -5.5661 
  68   0.0000      -0.204343        -5.5605 
  69   0.0000      -0.199814        -5.4372 
  70   0.0000      -0.199806        -5.4370 
  71   0.0000      -0.190097        -5.1728 
  72   0.0000      -0.180313        -4.9066 
  73   0.0000      -0.176237        -4.7957 
  74   0.0000      -0.164967        -4.4890 
  75   0.0000      -0.164791        -4.4842 
  76   0.0000      -0.160958        -4.3799 
  77   0.0000      -0.157196        -4.2775 
  78   0.0000      -0.157142        -4.2761 
  79   0.0000      -0.142512        -3.8779 
  80   0.0000      -0.141397        -3.8476 
  81   0.0000      -0.141227        -3.8430 
  82   0.0000      -0.134787        -3.6677 
  83   0.0000      -0.123435        -3.3588 
  84   0.0000      -0.123390        -3.3576 
  85   0.0000      -0.116183        -3.1615 
  86   0.0000      -0.116180        -3.1614 
  87   0.0000      -0.072348        -1.9687 
  88   0.0000      -0.072140        -1.9630 
  89   0.0000      -0.066030        -1.7968 
  90   0.0000      -0.060244        -1.6393 
  91   0.0000      -0.059977        -1.6321 
  92   0.0000      -0.059516        -1.6195 
  93   0.0000      -0.037222        -1.0129 
  94   0.0000      -0.034101        -0.9279 
  95   0.0000      -0.028283        -0.7696 
  96   0.0000      -0.028118        -0.7651 
  97   0.0000      -0.018442        -0.5018 
  98   0.0000      -0.018003        -0.4899 
  99   0.0000      -0.008087        -0.2200 
 100   0.0000      -0.005029        -0.1368 
 101   0.0000      -0.004743        -0.1291 
 102   0.0000       0.000226         0.0061 
 103   0.0000       0.011195         0.3046 
 104   0.0000       0.011568         0.3148 
 105   0.0000       0.014172         0.3856 
 106   0.0000       0.035452         0.9647 
 107   0.0000       0.035615         0.9691 
 108   0.0000       0.047097         1.2816 
 109   0.0000       0.047912         1.3038 
 110   0.0000       0.048702         1.3252 
 111   0.0000       0.053291         1.4501 
 112   0.0000       0.055503         1.5103 
 113   0.0000       0.067144         1.8271 
 114   0.0000       0.074355         2.0233 
 115   0.0000       0.074821         2.0360 
 116   0.0000       0.085551         2.3279 
 117   0.0000       0.085567         2.3284 
 118   0.0000       0.086628         2.3573 
 119   0.0000       0.102869         2.7992 
 120   0.0000       0.112282         3.0554 
 121   0.0000       0.112331         3.0567 
 122   0.0000       0.124765         3.3950 
 123   0.0000       0.124912         3.3990 
 124   0.0000       0.156127         4.2484 
 125   0.0000       0.160050         4.3552 
 126   0.0000       0.160173         4.3585 
 127   0.0000       0.166692         4.5359 
 128   0.0000       0.167002         4.5443 
 129   0.0000       0.167295         4.5523 
 130   0.0000       0.168764         4.5923 
 131   0.0000       0.180619         4.9149 
 132   0.0000       0.181175         4.9300 
 133   0.0000       0.181723         4.9449 
 134   0.0000       0.185227         5.0403 
 135   0.0000       0.198508         5.4017 
 136   0.0000       0.198560         5.4031 
 137   0.0000       0.211007         5.7418 
 138   0.0000       0.211255         5.7485 
 139   0.0000       0.212688         5.7875 
 140   0.0000       0.223947         6.0939 
 141   0.0000       0.224433         6.1071 
 142   0.0000       0.224441         6.1074 
 143   0.0000       0.245495         6.6803 
 144   0.0000       0.245673         6.6851 
 145   0.0000       0.246113         6.6971 
 146   0.0000       0.274579         7.4717 
 147   0.0000       0.274814         7.4781 
 148   0.0000       0.276810         7.5324 
 149   0.0000       0.282729         7.6934 
 150   0.0000       0.283394         7.7116 
 151   0.0000       0.283696         7.7197 
 152   0.0000       0.317443         8.6381 
 153   0.0000       0.320550         8.7226 
 154   0.0000       0.320614         8.7244 
 155   0.0000       0.324264         8.8237 
 156   0.0000       0.343156         9.3378 
 157   0.0000       0.343368         9.3435 
 158   0.0000       0.355088         9.6624 
 159   0.0000       0.382006        10.3949 
 160   0.0000       0.382283        10.4024 
 161   0.0000       0.385009        10.4766 
 162   0.0000       0.407669        11.0932 
 163   0.0000       0.408039        11.1033 
 164   0.0000       0.435883        11.8610 
 165   0.0000       0.444408        12.0930 
 166   0.0000       0.444491        12.0952 
 167   0.0000       0.458482        12.4759 
 168   0.0000       0.532371        14.4866 
 169   0.0000       0.532595        14.4926 
 170   0.0000       0.555201        15.1078 
 171   0.0000       0.555420        15.1138 
 172   0.0000       0.625889        17.0313 
 173   0.0000       0.638461        17.3734 
 174   0.0000       0.664412        18.0796 
 175   0.0000       0.664529        18.0827 
 176   0.0000       0.725806        19.7502 
 177   0.0000       0.725818        19.7505 
 178   0.0000       1.003870        27.3167 
 179   0.0000       1.003987        27.3199 
 180   0.0000       1.008691        27.4479 
 181   0.0000       1.029310        28.0089 
 182   0.0000       1.056362        28.7451 
 183   0.0000       1.056529        28.7496 
 184   0.0000       1.071791        29.1649 
 185   0.0000       1.072886        29.1947 
 186   0.0000       1.079314        29.3696 
 187   0.0000       1.079340        29.3703 
 188   0.0000       1.085025        29.5250 
 189   0.0000       1.085217        29.5303 
 190   0.0000       1.111638        30.2492 
 191   0.0000       1.118674        30.4407 
 192   0.0000       1.118858        30.4457 
 193   0.0000       1.149863        31.2894 
 194   0.0000       1.168882        31.8069 
 195   0.0000       1.169042        31.8112 
 196   0.0000       1.178298        32.0631 
 197   0.0000       1.186111        32.2757 
 198   0.0000       1.186153        32.2769 
 199   0.0000       1.207919        32.8692 
 200   0.0000       1.233266        33.5589 
 201   0.0000       1.233423        33.5631 
 202   0.0000       1.247455        33.9450 
 203   0.0000       1.247482        33.9457 
 204   0.0000       1.253781        34.1171 
 205   0.0000       1.258900        34.2564 
 206   0.0000       1.302681        35.4477 
 207   0.0000       1.302717        35.4487 
 208   0.0000       1.323530        36.0151 
 209   0.0000       1.328919        36.1617 
 210   0.0000       1.329038        36.1650 
 211   0.0000       1.371276        37.3143 
 212   0.0000       1.371341        37.3161 
 213   0.0000       1.448666        39.4202 
 214   0.0000       1.456394        39.6305 
 215   0.0000       1.460608        39.7452 
 216   0.0000       1.465111        39.8677 
 217   0.0000       1.465283        39.8724 
 218   0.0000       1.468901        39.9708 
 219   0.0000       1.468963        39.9725 
 220   0.0000       1.475944        40.1625 
 221   0.0000       1.476025        40.1647 
 222   0.0000       1.489152        40.5219 
 223   0.0000       1.504047        40.9272 
 224   0.0000       1.504298        40.9340 
 225   0.0000       1.535057        41.7710 
 226   0.0000       1.535144        41.7734 
 227   0.0000       1.544546        42.0292 
 228   0.0000       1.567366        42.6502 
 229   0.0000       1.568717        42.6870 
 230   0.0000       1.576438        42.8971 
 231   0.0000       1.576470        42.8979 
 232   0.0000       1.602983        43.6194 
 233   0.0000       1.603235        43.6262 
 234   0.0000       1.603606        43.6363 
 235   0.0000       1.640470        44.6394 
 236   0.0000       1.641702        44.6730 
 237   0.0000       1.660044        45.1721 
 238   0.0000       1.660057        45.1724 
 239   0.0000       1.693786        46.0903 
 240   0.0000       1.696194        46.1558 
 241   0.0000       1.696318        46.1592 
 242   0.0000       1.702177        46.3186 
 243   0.0000       1.702418        46.3252 
 244   0.0000       1.716895        46.7191 
 245   0.0000       1.722772        46.8790 
 246   0.0000       1.724435        46.9243 
 247   0.0000       1.724635        46.9297 
 248   0.0000       1.751292        47.6551 
 249   0.0000       1.751731        47.6670 
 250   0.0000       1.785087        48.5747 
 251   0.0000       1.785445        48.5844 
 252   0.0000       1.789665        48.6993 
 253   0.0000       1.793482        48.8031 
 254   0.0000       1.810851        49.2758 
 255   0.0000       1.810927        49.2778 
 256   0.0000       1.847783        50.2807 
 257   0.0000       1.847789        50.2809 
 258   0.0000       1.901215        51.7347 
 259   0.0000       1.914163        52.0870 
 260   0.0000       1.914460        52.0951 
 261   0.0000       1.915717        52.1293 
 262   0.0000       1.924218        52.3606 
 263   0.0000       1.924360        52.3645 
 264   0.0000       1.934740        52.6470 
 265   0.0000       1.934978        52.6534 
 266   0.0000       1.973043        53.6892 
 267   0.0000       1.973098        53.6907 
 268   0.0000       2.002865        54.5007 
 269   0.0000       2.002926        54.5024 
 270   0.0000       2.013862        54.8000 
 271   0.0000       2.014031        54.8046 
 272   0.0000       2.028241        55.1912 
 273   0.0000       2.047792        55.7233 
 274   0.0000       2.060347        56.0649 
 275   0.0000       2.076195        56.4961 
 276   0.0000       2.076288        56.4987 
 277   0.0000       2.140655        58.2502 
 278   0.0000       2.141005        58.2597 
 279   0.0000       2.143196        58.3193 
 280   0.0000       2.187662        59.5293 
 281   0.0000       2.231748        60.7290 
 282   0.0000       2.231762        60.7293 
 283   0.0000       2.248097        61.1738 
 284   0.0000       2.299988        62.5859 
 285   0.0000       2.300275        62.5937 
 286   0.0000       2.301494        62.6268 
 287   0.0000       2.385787        64.9206 
 288   0.0000       2.402922        65.3868 
 289   0.0000       2.402935        65.3872 
 290   0.0000       2.447709        66.6055 
 291   0.0000       2.447858        66.6096 
 292   0.0000       2.480866        67.5078 
 293   0.0000       2.553344        69.4800 
 294   0.0000       2.563663        69.7608 
 295   0.0000       2.564015        69.7704 
 296   0.0000       2.611142        71.0528 
 297   0.0000       2.611347        71.0584 
 298   0.0000       2.638025        71.7843 
 299   0.0000       2.638207        71.7893 
 300   0.0000       2.664001        72.4912 
 301   0.0000       2.664925        72.5163 
 302   0.0000       2.777263        75.5732 
 303   0.0000       2.777268        75.5733 
 304   0.0000       2.821611        76.7799 
 305   0.0000       2.821632        76.7805 
 306   0.0000       2.846024        77.4443 
 307   0.0000       2.865254        77.9675 
 308   0.0000       2.873021        78.1789 
 309   0.0000       2.873190        78.1835 
 310   0.0000       2.907450        79.1157 
 311   0.0000       2.907563        79.1188 
 312   0.0000       2.924563        79.5814 
 313   0.0000       3.051508        83.0357 
 314   0.0000       3.125389        85.0462 
 315   0.0000       3.125529        85.0500 
 316   0.0000       3.141456        85.4834 
 317   0.0000       3.174285        86.3767 
 318   0.0000       3.174511        86.3828 
 319   0.0000      21.309803       579.8692 
 320   0.0000      21.345675       580.8453 
 321   0.0000      21.345749       580.8473 
 322   0.0000      21.502156       585.1034 
 323   0.0000      21.502238       585.1056 
 324   0.0000      21.519850       585.5849 
 325   0.0000      28.562631       777.2287 
 326   0.0000      31.280810       851.1941 
 327   0.0000      31.291833       851.4941 
 328   0.0000      31.291897       851.4958 
 329   0.0000      31.342247       852.8659 
 330   0.0000      31.435403       855.4008 
 331   0.0000      31.435417       855.4012 
 332   0.0000      96.571123      2627.8338 

                    ********************************
                    * MULLIKEN POPULATION ANALYSIS *
                    ********************************

-----------------------
MULLIKEN ATOMIC CHARGES
-----------------------
   0 C :   -0.220059
   1 C :   -0.220059
   2 N :   -0.692919
   3 H :    0.086662
   4 H :    0.286015
   5 N :   -0.692919
   6 H :    0.086662
   7 H :    0.286015
   8 Ru:    0.663227
   9 H :    0.367605
  10 H :    0.367605
  11 H :    0.396439
  12 H :    0.396439
  13 C :   -0.228867
  14 C :   -0.219843
  15 N :   -0.695117
  16 H :    0.287004
  17 H :    0.089227
  18 N :   -0.693763
  19 H :    0.287113
  20 H :    0.087674
  21 H :    0.368445
  22 H :    0.369324
  23 H :    0.396827
  24 H :    0.396618
  25 C :   -0.228867
  26 C :   -0.219843
  27 N :   -0.693763
  28 H :    0.287113
  29 H :    0.087675
  30 N :   -0.695117
  31 H :    0.287004
  32 H :    0.089227
  33 H :    0.396827
  34 H :    0.368445
  35 H :    0.369324
  36 H :    0.396618
Sum of atomic charges:    2.0000000

--------------------------------
MULLIKEN REDUCED ORBITAL CHARGES
--------------------------------
  0 C s       :     3.275531  s :     3.275531
      pz      :     0.976471  p :     2.888087
      px      :     0.923691
      py      :     0.987925
      dz2     :     0.009934  d :     0.056440
      dxz     :     0.014338
      dyz     :     0.012099
      dx2y2   :     0.014862
      dxy     :     0.005208
  1 C s       :     3.275532  s :     3.275532
      pz      :     0.976471  p :     2.888087
      px      :     0.923691
      py      :     0.987925
      dz2     :     0.009934  d :     0.056440
      dxz     :     0.014338
      dyz     :     0.012099
      dx2y2   :     0.014862
      dxy     :     0.005208
  2 N s       :     3.504491  s :     3.504491
      pz      :     1.377642  p :     4.145503
      px      :     1.396923
      py      :     1.370938
      dz2     :     0.013980  d :     0.042925
      dxz     :     0.004284
      dyz     :     0.005672
      dx2y2   :     0.014254
      dxy     :     0.004735
  3 H s       :     0.913338  s :     0.913338
  4 H s       :     0.713985  s :     0.713985
  5 N s       :     3.504491  s :     3.504491
      pz      :     1.377642  p :     4.145503
      px      :     1.396923
      py      :     1.370938
      dz2     :     0.013980  d :     0.042925
      dxz     :     0.004284
      dyz     :     0.005672
      dx2y2   :     0.014254
      dxy     :     0.004735
  6 H s       :     0.913338  s :     0.913338
  7 H s       :     0.713985  s :     0.713985
  8 Rus       :     2.373426  s :     2.373426
      pz      :     1.975569  p :     6.038319
      px      :     2.031754
      py      :     2.030997
      dz2     :     1.933705  d :     6.925028
      dxz     :     1.041415
      dyz     :     1.041619
      dx2y2   :     1.454692
      dxy     :     1.453597
  9 H s       :     0.632395  s :     0.632395
 10 H s       :     0.632395  s :     0.632395
 11 H s       :     0.603561  s :     0.603561
 12 H s       :     0.603561  s :     0.603561
 13 C s       :     3.281973  s :     3.281973
      pz      :     0.979010  p :     2.890478
      px      :     0.994831
      py      :     0.916637
      dz2     :     0.009926  d :     0.056416
      dxz     :     0.012097
      dyz     :     0.014331
      dx2y2   :     0.008058
      dxy     :     0.012004
 14 C s       :     3.276393  s :     3.276393
      pz      :     0.976625  p :     2.887003
      px      :     0.948476
      py      :     0.961902
      dz2     :     0.009931  d :     0.056447
      dxz     :     0.013217
      dyz     :     0.013227
      dx2y2   :     0.007185
      dxy     :     0.012888
 15 N s       :     3.504904  s :     3.504904
      pz      :     1.377886  p :     4.147272
      px      :     1.285790
      py      :     1.483596
      dz2     :     0.013980  d :     0.042942
      dxz     :     0.005568
      dyz     :     0.004399
      dx2y2   :     0.005529
      dxy     :     0.013466
 16 H s       :     0.712996  s :     0.712996
 17 H s       :     0.910773  s :     0.910773
 18 N s       :     3.505116  s :     3.505116
      pz      :     1.378170  p :     4.145706
      px      :     1.468216
      py      :     1.299321
      dz2     :     0.013980  d :     0.042941
      dxz     :     0.005096
      dyz     :     0.004871
      dx2y2   :     0.008703
      dxy     :     0.010290
 19 H s       :     0.712887  s :     0.712887
 20 H s       :     0.912326  s :     0.912326
 21 H s       :     0.631555  s :     0.631555
 22 H s       :     0.630676  s :     0.630676
 23 H s       :     0.603173  s :     0.603173
 24 H s       :     0.603382  s :     0.603382
 25 C s       :     3.281973  s :     3.281973
      pz      :     0.979010  p :     2.890478
      px      :     0.994831
      py      :     0.916637
      dz2     :     0.009926  d :     0.056416
      dxz     :     0.012097
      dyz     :     0.014331
      dx2y2   :     0.008058
      dxy     :     0.012004
 26 C s       :     3.276393  s :     3.276393
      pz      :     0.976625  p :     2.887003
      px      :     0.948476
      py      :     0.961902
      dz2     :     0.009931  d :     0.056447
      dxz     :     0.013217
[...]
     62      -0.009624  -0.005511  -0.005258
     63      -0.161792  -0.092688  -0.100524
     64       0.148216   0.084106   0.091576
     65      -0.367615  -0.208294  -0.227814
     66       0.062017   0.070553  -0.128131
     67      -0.019094  -0.022653   0.040700
     68       0.108734   0.121986  -0.221438
     69       0.135204   0.129869  -0.238315
     70      -0.059236  -0.057294   0.105117
     71      -0.042877  -0.042512   0.076723
     72      -0.320321  -0.171886  -0.206622
     73       0.232674   0.124653   0.150428
     74       0.114098   0.062065   0.073256
     75       0.000602  -0.000445  -0.000549
     76       0.000304  -0.000171  -0.000347
     77      -0.000252   0.000267   0.000631
     78      -0.001134   0.000579  -0.000558
     79      -0.000742   0.000424  -0.000318
     80       0.000953  -0.000513   0.000640
     81      -0.034861   0.019111  -0.022155
     82      -0.027618   0.015186  -0.017529
     83       0.018251  -0.010624   0.011202
     84      -0.000918   0.000744  -0.000510
     85       0.002230  -0.001174   0.001077
     86      -0.002228   0.001056  -0.001499
     87       0.009337  -0.004713   0.006254
     88       0.004240  -0.002634   0.002898
     89      -0.009623   0.005511  -0.005258
     90       0.014241  -0.014543  -0.026489
     91       0.005724  -0.005782  -0.010488
     92      -0.004669   0.005795   0.010466
     93      -0.000799   0.000344   0.000652
     94       0.001038  -0.001006  -0.000848
     95       0.000670  -0.000436  -0.001422
     96      -0.002184   0.002613   0.005617
     97      -0.001515   0.001242   0.003916
     98       0.003746  -0.003530  -0.005156
     99      -0.135184   0.129864   0.238319
    100      -0.059228   0.057292   0.105118
    101      -0.042870   0.042511   0.076724
    102       0.161786  -0.092691   0.100522
    103       0.148211  -0.084109   0.091575
    104      -0.367603   0.208300  -0.227810
    105      -0.062005   0.070551   0.128133
    106      -0.019090   0.022652   0.040700
    107       0.108713  -0.121981  -0.221441
    108       0.320309  -0.171891   0.206619
    109       0.232665  -0.124657   0.150426
    110       0.114094  -0.062067   0.073255


-----------
IR SPECTRUM
-----------

 Mode    freq (cm**-1)   T**2         TX         TY         TZ
-------------------------------------------------------------------
   6:        83.38    0.001093  ( -0.000013  -0.032906   0.003238)
   7:        83.96    0.001881  ( -0.043365   0.000007  -0.000006)
   8:       115.75    1.410293  (  0.000003  -0.033759   1.187078)
   9:       132.00    0.152908  (  0.391034  -0.000244  -0.000040)
  10:       132.09    0.129974  ( -0.000269  -0.353927  -0.068628)
  11:       142.36    0.019867  ( -0.140950  -0.000008  -0.000001)
  12:       199.51    7.109448  ( -0.000247  -2.660305  -0.179513)
  13:       199.96    6.780372  ( -2.603915   0.000248   0.000087)
  14:       203.05    8.649680  (  0.000061  -0.188421   2.934992)
  15:       232.29    0.002406  ( -0.049056  -0.000007   0.000001)
  16:       299.13    5.169750  ( -0.001565   2.273508   0.030165)
  17:       299.18    5.429183  (  2.330060   0.001531   0.000018)
  18:       306.57    0.046473  ( -0.215576  -0.000075  -0.000002)
  19:       324.84   11.073780  ( -3.327729   0.001024  -0.000007)
  20:       325.11   11.358318  (  0.001004   3.370182  -0.013886)
  21:       379.13    1.772987  ( -0.000006   0.064287   1.329983)
  22:       380.51    0.289698  (  0.000012   0.463821  -0.273073)
  23:       380.94    0.262194  (  0.512049  -0.000012   0.000018)
  24:       437.12    2.915570  (  1.707504   0.000009   0.000001)
  25:       437.48    2.819627  (  0.000011  -1.679143   0.010290)
  26:       471.89    0.001465  ( -0.038273  -0.000002   0.000001)
  27:       522.06    2.862015  (  0.000157   1.691591  -0.023100)
  28:       522.56    2.753318  (  1.659312  -0.000164  -0.000001)
  29:       551.86    0.551526  (  0.000005  -0.052325   0.740802)
  30:       657.22    1.100380  (  0.000009   0.371276   0.981088)
  31:       658.73    0.933845  ( -0.000035   0.838336  -0.480663)
  32:       658.88    0.835898  ( -0.914275  -0.000033   0.000027)
  33:       683.31    0.005608  (  0.074888  -0.000001  -0.000001)
  34:       740.34   18.623255  (  0.000250   4.315263  -0.042001)
  35:       740.82   18.010321  ( -4.243857   0.000249  -0.000004)
  36:       868.51    5.469342  (  2.338662   0.000934  -0.000006)
  37:       868.79    5.803791  ( -0.000842   2.409067  -0.013712)
  38:       869.42    0.296302  ( -0.544337   0.000369   0.000005)
  39:       869.80    0.015442  (  0.000211   0.124242   0.002471)
  40:       870.88    0.018458  ( -0.135860  -0.000090  -0.000002)
  41:       880.22    0.215672  (  0.000015  -0.041193   0.462574)
  42:       987.80    7.495925  (  2.737868  -0.001744  -0.000241)
  43:       987.90    7.310363  ( -0.001827  -2.700611  -0.130612)
  44:       990.00    0.002446  (  0.049458  -0.000044   0.000176)
  45:       991.38   10.339750  (  0.000140  -0.240654   3.206530)
  46:       993.15    1.711673  (  0.000193   1.221506   0.468612)
  47:       993.39    1.462173  (  1.209203  -0.000288  -0.000105)
  48:      1042.81   65.769395  ( -8.109833  -0.000200  -0.000005)
  49:      1043.31   66.975354  ( -0.000203   8.183840  -0.010506)
  50:      1046.04    0.610034  (  0.781047  -0.000055  -0.000003)
  51:      1106.91    2.537459  (  0.000097   1.592895   0.012000)
  52:      1107.94    2.566136  (  1.601916  -0.000090  -0.000002)
  53:      1120.86    0.003110  (  0.000019  -0.021916   0.051283)
  54:      1140.49   44.874506  ( -6.698844   0.000120  -0.000000)
  55:      1141.23   45.225364  (  0.000118   6.724888   0.035220)
  56:      1160.10    0.007811  ( -0.088381  -0.000009   0.000002)
  57:      1196.03    3.674853  ( -0.000295  -1.916875  -0.021006)
  58:      1196.19    4.388290  ( -2.094825   0.000263   0.000002)
  59:      1216.80    6.501861  ( -0.000007  -0.058800   2.549197)
  60:      1301.57    0.098778  ( -0.314289  -0.000008   0.000001)
  61:      1302.07    0.102950  ( -0.000012   0.320471  -0.015773)
  62:      1306.80    0.000011  ( -0.003379   0.000002  -0.000001)
  63:      1320.90    8.395179  ( -2.897444  -0.000016   0.000004)
  64:      1321.38    8.254710  ( -0.000015   2.873094  -0.006475)
  65:      1331.94    0.010604  ( -0.102977  -0.000002  -0.000001)
  66:      1348.45    6.684837  ( -0.000063   2.581828   0.137840)
  67:      1348.87    7.024136  ( -2.650309  -0.000050  -0.000016)
  68:      1350.00    0.687183  ( -0.000061  -0.541806   0.627398)
  69:      1397.46    0.403905  ( -0.000022  -0.630936  -0.076321)
  70:      1398.05    0.422288  ( -0.649837   0.000034   0.000017)
  71:      1401.42    0.658877  ( -0.000002   0.038808  -0.810784)
  72:      1432.73    4.185949  (  2.045959  -0.000230   0.000012)
  73:      1433.13    4.190416  ( -0.000225  -2.047026   0.009951)
  74:      1436.91    0.022470  ( -0.149900  -0.000038   0.000004)
  75:      1503.70    4.278436  ( -2.068433   0.004288  -0.000036)
  76:      1503.78   28.708218  ( -0.001078  -5.357617   0.064490)
  77:      1504.00   28.034422  (  5.294754   0.000475  -0.000013)
  78:      1504.82    1.427982  (  1.194982   0.000566   0.000141)
  79:      1505.07    1.139664  ( -0.000172  -1.021110   0.311445)
  80:      1505.11    4.313578  (  0.000136  -2.032169  -0.428798)
  81:      1684.13  186.634371  (  0.000000  -0.056183 -13.661304)
  82:      1691.04    1.881411  (  1.371646   0.000039   0.000035)
  83:      1692.02    2.313833  ( -0.000036   1.421600   0.541190)
  84:      1695.75    0.033622  (  0.183364  -0.000016  -0.000038)
  85:      1698.92    5.691192  (  0.000042  -2.342715   0.450418)
  86:      1700.23    6.006636  ( -2.450844  -0.000038   0.000016)
  87:      3022.47    9.556044  ( -3.091005  -0.040854  -0.007903)
  88:      3022.51    8.262860  (  0.045227  -2.815879  -0.575884)
  89:      3024.81    9.579967  (  3.095149  -0.004466  -0.001437)
  90:      3025.80   10.394852  ( -3.223510   0.051006  -0.035144)
  91:      3025.84   16.075774  (  0.050908   3.343678  -2.212012)
  92:      3027.26   12.695054  ( -0.002880  -3.035901  -1.865033)
  93:      3065.42   14.410111  (  0.004315   3.787708  -0.251712)
  94:      3065.55    4.328160  (  2.080409  -0.007728   0.000629)
  95:      3067.22    7.959353  (  2.821232   0.000394   0.000401)
  96:      3077.08   19.056604  ( -0.054720   1.758941  -3.994964)
  97:      3077.13   13.025771  ( -3.608515  -0.026680   0.060684)
  98:      3079.23   16.332100  ( -0.000358   2.905554   2.808888)
  99:      3393.70    0.015934  (  0.126229   0.000006  -0.000103)
 100:      3393.82    1.113970  (  0.000015  -0.068177   1.053244)
 101:      3397.84    2.294319  ( -0.000023  -1.512509  -0.081460)
 102:      3398.01    0.851644  ( -0.922846   0.000022   0.000002)
 103:      3398.90    2.455359  (  1.566959  -0.000084  -0.000002)
 104:      3399.11    1.197479  (  0.000106   1.093504  -0.041575)
 105:      3447.85    6.200368  ( -2.490054   0.000011  -0.000003)
 106:      3447.96    3.758762  (  0.000015   1.915625  -0.298571)
 107:      3449.94    4.467811  ( -2.113720   0.000066  -0.000012)
 108:      3450.06    7.626954  (  0.000046   2.749028  -0.264197)
 109:      3451.26    0.629319  ( -0.793296  -0.000013   0.000026)
 110:      3453.31   11.207492  ( -0.000005  -0.352984  -3.329098)

The first frequency considered to be a vibration is 6
The total number of vibrations considered is 105


--------------------------
THERMOCHEMISTRY AT 298.15K
--------------------------

Temperature         ... 298.15 K
Pressure            ... 1.00 atm
Total Mass          ... 281.37 AMU

Throughout the following assumptions are being made:
  (1) The electronic state is orbitally nondegenerate
  (2) There are no thermally accessible electronically excited states
  (3) Hindered rotations indicated by low frequency modes are not
      treated as such but are treated as vibrations and this may
      cause some error
  (4) All equations used are the standard statistical mechanics
      equations for an ideal gas
  (5) All vibrations are strictly harmonic

freq.      83.38  E(vib)   ...       0.48 
freq.      83.96  E(vib)   ...       0.48 
freq.     115.75  E(vib)   ...       0.44 
freq.     132.00  E(vib)   ...       0.42 
freq.     132.09  E(vib)   ...       0.42 
freq.     142.36  E(vib)   ...       0.41 
freq.     199.51  E(vib)   ...       0.35 
freq.     199.96  E(vib)   ...       0.35 
freq.     203.05  E(vib)   ...       0.35 
freq.     232.29  E(vib)   ...       0.32 
freq.     299.13  E(vib)   ...       0.26 
freq.     299.18  E(vib)   ...       0.26 
freq.     306.57  E(vib)   ...       0.26 
freq.     324.84  E(vib)   ...       0.24 
freq.     325.11  E(vib)   ...       0.24 
freq.     379.13  E(vib)   ...       0.21 
freq.     380.51  E(vib)   ...       0.21 
freq.     380.94  E(vib)   ...       0.21 
freq.     437.12  E(vib)   ...       0.17 
freq.     437.48  E(vib)   ...       0.17 
freq.     471.89  E(vib)   ...       0.15 
freq.     522.06  E(vib)   ...       0.13 
freq.     522.56  E(vib)   ...       0.13 
freq.     551.86  E(vib)   ...       0.12 
freq.     657.22  E(vib)   ...       0.08 
freq.     658.73  E(vib)   ...       0.08 
freq.     658.88  E(vib)   ...       0.08 
freq.     683.31  E(vib)   ...       0.08 
freq.     740.34  E(vib)   ...       0.06 
freq.     740.82  E(vib)   ...       0.06 
freq.     868.51  E(vib)   ...       0.04 
freq.     868.79  E(vib)   ...       0.04 
freq.     869.42  E(vib)   ...       0.04 
freq.     869.80  E(vib)   ...       0.04 
freq.     870.88  E(vib)   ...       0.04 
freq.     880.22  E(vib)   ...       0.04 
freq.     987.80  E(vib)   ...       0.02 
freq.     987.90  E(vib)   ...       0.02 
freq.     990.00  E(vib)   ...       0.02 
freq.     991.38  E(vib)   ...       0.02 
freq.     993.15  E(vib)   ...       0.02 
freq.     993.39  E(vib)   ...       0.02 
freq.    1042.81  E(vib)   ...       0.02 
freq.    1043.31  E(vib)   ...       0.02 
freq.    1046.04  E(vib)   ...       0.02 
freq.    1106.91  E(vib)   ...       0.02 
freq.    1107.94  E(vib)   ...       0.02 
freq.    1120.86  E(vib)   ...       0.01 
freq.    1140.49  E(vib)   ...       0.01 
freq.    1141.23  E(vib)   ...       0.01 
freq.    1160.10  E(vib)   ...       0.01 
freq.    1196.03  E(vib)   ...       0.01 
freq.    1196.19  E(vib)   ...       0.01 
freq.    1216.80  E(vib)   ...       0.01 
freq.    1301.57  E(vib)   ...       0.01 
freq.    1302.07  E(vib)   ...       0.01 
freq.    1306.80  E(vib)   ...       0.01 
freq.    1320.90  E(vib)   ...       0.01 
freq.    1321.38  E(vib)   ...       0.01 
freq.    1331.94  E(vib)   ...       0.01 
freq.    1348.45  E(vib)   ...       0.01 
freq.    1348.87  E(vib)   ...       0.01 
freq.    1350.00  E(vib)   ...       0.01 
freq.    1397.46  E(vib)   ...       0.00 
freq.    1398.05  E(vib)   ...       0.00 
freq.    1401.42  E(vib)   ...       0.00 
freq.    1432.73  E(vib)   ...       0.00 
freq.    1433.13  E(vib)   ...       0.00 
freq.    1436.91  E(vib)   ...       0.00 
freq.    1503.70  E(vib)   ...       0.00 
freq.    1503.78  E(vib)   ...       0.00 
freq.    1504.00  E(vib)   ...       0.00 
freq.    1504.82  E(vib)   ...       0.00 
freq.    1505.07  E(vib)   ...       0.00 
freq.    1505.11  E(vib)   ...       0.00 
freq.    1684.13  E(vib)   ...       0.00 
freq.    1691.04  E(vib)   ...       0.00 
freq.    1692.02  E(vib)   ...       0.00 
freq.    1695.75  E(vib)   ...       0.00 
freq.    1698.92  E(vib)   ...       0.00 
freq.    1700.23  E(vib)   ...       0.00 
freq.    3022.47  E(vib)   ...       0.00 
freq.    3022.51  E(vib)   ...       0.00 
freq.    3024.81  E(vib)   ...       0.00 
freq.    3025.80  E(vib)   ...       0.00 
freq.    3025.84  E(vib)   ...       0.00 
freq.    3027.26  E(vib)   ...       0.00 
freq.    3065.42  E(vib)   ...       0.00 
freq.    3065.55  E(vib)   ...       0.00 
freq.    3067.22  E(vib)   ...       0.00 
freq.    3077.08  E(vib)   ...       0.00 
freq.    3077.13  E(vib)   ...       0.00 
freq.    3079.23  E(vib)   ...       0.00 
freq.    3393.70  E(vib)   ...       0.00 
freq.    3393.82  E(vib)   ...       0.00 
freq.    3397.84  E(vib)   ...       0.00 
freq.    3398.01  E(vib)   ...       0.00 
freq.    3398.90  E(vib)   ...       0.00 
freq.    3399.11  E(vib)   ...       0.00 
freq.    3447.85  E(vib)   ...       0.00 
freq.    3447.96  E(vib)   ...       0.00 
freq.    3449.94  E(vib)   ...       0.00 
freq.    3450.06  E(vib)   ...       0.00 
freq.    3451.26  E(vib)   ...       0.00 
freq.    3453.31  E(vib)   ...       0.00 

------------
INNER ENERGY
------------

The inner energy is: U= E(el) + E(ZPE) + E(vib) + E(rot) + E(trans)
    E(el)   - is the total energy from the electronic structure calculation
              = E(kin-el) + E(nuc-el) + E(el-el) + E(nuc-nuc)
    E(ZPE)  - the the zero temperature vibrational energy from the frequency calculation
    E(vib)  - the the finite temperature correction to E(ZPE) due to population
              of excited vibrational states
    E(rot)  - is the rotational thermal energy
    E(trans)- is the translational thermal energy

Summary of contributions to the inner energy U:
Electronic energy                ...   -666.10418117 Eh
Zero point energy                ...      0.34918449 Eh     219.12 kcal/mol
Thermal vibrational correction   ...      0.01260442 Eh       7.91 kcal/mol
Thermal rotational correction    ...      0.00141627 Eh       0.89 kcal/mol
Thermal translational correction ...      0.00141627 Eh       0.89 kcal/mol
-----------------------------------------------------------------------
Total thermal energy                   -665.73955972 Eh


Summary of corrections to the electronic energy:
(perhaps to be used in another calculation)
Total thermal correction                  0.01543696 Eh       9.69 kcal/mol
Non-thermal (ZPE) correction              0.34918449 Eh     219.12 kcal/mol
-----------------------------------------------------------------------
Total correction                          0.36462145 Eh     228.80 kcal/mol


--------
ENTHALPY
--------

The enthalpy is H = U + kB*T
                kB is Boltzmann's constant
Total free energy                 ...   -665.73955972 Eh 
Thermal Enthalpy correction       ...      0.00094421 Eh       0.59 kcal/mol
-----------------------------------------------------------------------
Total Enthalpy                    ...   -665.73861551 Eh


Note: Only C1 symmetry has been detected, increase convergence thresholds 
      if your molecule has a higher symmetry. Symmetry factor of 1.0 is   
      used for the rotational entropy correction. 
 

Note: Rotational entropy computed according to Herzberg 
Infrared and Raman Spectra, Chapter V,1, Van Nostrand Reinhold, 1945 
Point Group:  C1, Symmetry Number:   1  
Rotational constants in cm-1:     0.023515     0.023514     0.015154 

Vibrational entropy computed according to the QRRHO of S. Grimme
Chem.Eur.J. 2012 18 9955


-------
ENTROPY
-------

The entropy contributions are T*S = T*(S(el)+S(vib)+S(rot)+S(trans))
     S(el)   - electronic entropy
     S(vib)  - vibrational entropy
     S(rot)  - rotational entropy
     S(trans)- translational entropy
The entropies will be listed as mutliplied by the temperature to get
units of energy

Electronic entropy                ...      0.00000000 Eh      0.00 kcal/mol
Vibrational entropy               ...      0.02132019 Eh     13.38 kcal/mol
Rotational entropy                ...      0.01502944 Eh      9.43 kcal/mol
Translational entropy             ...      0.02033638 Eh     12.76 kcal/mol
-----------------------------------------------------------------------
Final entropy term                ...      0.05668600 Eh     35.57 kcal/mol

In case the symmetry of your molecule has not been determined correctly
or in case you have a reason to use a different symmetry number we print 
out the resulting rotational entropy values for sn=1,12 :
 --------------------------------------------------------
|  sn= 1 | S(rot)=       0.01502944 Eh      9.43 kcal/mol|
|  sn= 2 | S(rot)=       0.01437498 Eh      9.02 kcal/mol|
|  sn= 3 | S(rot)=       0.01399215 Eh      8.78 kcal/mol|
|  sn= 4 | S(rot)=       0.01372053 Eh      8.61 kcal/mol|
|  sn= 5 | S(rot)=       0.01350984 Eh      8.48 kcal/mol|
|  sn= 6 | S(rot)=       0.01333769 Eh      8.37 kcal/mol|
|  sn= 7 | S(rot)=       0.01319215 Eh      8.28 kcal/mol|
|  sn= 8 | S(rot)=       0.01306607 Eh      8.20 kcal/mol|
|  sn= 9 | S(rot)=       0.01295486 Eh      8.13 kcal/mol|
|  sn=10 | S(rot)=       0.01285538 Eh      8.07 kcal/mol|
|  sn=11 | S(rot)=       0.01276539 Eh      8.01 kcal/mol|
|  sn=12 | S(rot)=       0.01268324 Eh      7.96 kcal/mol|
 --------------------------------------------------------


-------------------
GIBBS FREE ENERGY
-------------------

The Gibbs free energy is G = H - T*S

Total enthalpy                    ...   -665.73861551 Eh 
Total entropy correction          ...     -0.05668600 Eh    -35.57 kcal/mol
-----------------------------------------------------------------------
Final Gibbs free energy         ...   -665.79530151 Eh

For completeness - the Gibbs free energy minus the electronic energy
G-E(el)                           ...      0.30887966 Eh    193.82 kcal/mol


Timings for individual modules:

Sum of individual times         ...     3100.843 sec (=  51.681 min)
GTO integral calculation        ...       92.456 sec (=   1.541 min)   3.0 %
SCF iterations                  ...      852.249 sec (=  14.204 min)  27.5 %
SCF Gradient evaluation         ...      491.573 sec (=   8.193 min)  15.9 %
Geometry relaxation             ...       15.575 sec (=   0.260 min)   0.5 %
Analytical frequency calculation...     1648.990 sec (=  27.483 min)  53.2 %
                             ****ORCA TERMINATED NORMALLY****
TOTAL RUN TIME: 0 days 0 hours 51 minutes 58 seconds 672 msec
