
                                 *****************
                                 * O   R   C   A *
                                 *****************

           --- An Ab Initio, DFT and Semiempirical electronic structure package ---

                  #######################################################
                  #                        -***-                        #
                  #          Department of theory and spectroscopy      #
                  #               Directorship: Frank Neese             #
                  #        Max Planck Institute fuer Kohlenforschung    #
                  #                Kaiser Wilhelm Platz 1               #
                  #                 D-45470 Muelheim/Ruhr               #
                  #                      Germany                        #
                  #                                                     #
                  #                  All rights reserved                #
                  #                        -***-                        #
                  #######################################################


                         Program Version 4.2.1 -  RELEASE  -


 With contributions from (in alphabetic order):
   Daniel Aravena         : Magnetic Suceptibility
   Michael Atanasov       : Ab Initio Ligand Field Theory (pilot matlab implementation)
   Alexander A. Auer      : GIAO ZORA, VPT2
   Ute Becker             : Parallelization
   Giovanni Bistoni       : ED, misc. LED, open-shell LED, HFLD
   Martin Brehm           : Molecular dynamics
   Dmytro Bykov           : SCF Hessian
   Vijay G. Chilkuri      : MRCI spin determinant printing, contributions to CSF-ICE
   Dipayan Datta          : RHF DLPNO-CCSD density
   Achintya Kumar Dutta   : EOM-CC, STEOM-CC
   Dmitry Ganyushin       : Spin-Orbit,Spin-Spin,Magnetic field MRCI
   Miquel Garcia          : C-PCM Hessian, Gaussian charge scheme
   Yang Guo               : DLPNO-NEVPT2, CIM, IAO-localization
   Andreas Hansen         : Spin unrestricted coupled pair/coupled cluster methods
   Benjamin Helmich-Paris : CASSCF linear response (MC-RPA)
   Lee Huntington         : MR-EOM, pCC
   Robert Izsak           : Overlap fitted RIJCOSX, COSX-SCS-MP3, EOM
   Christian Kollmar      : KDIIS, OOCD, Brueckner-CCSD(T), CCSD density
   Simone Kossmann        : Meta GGA functionals, TD-DFT gradient, OOMP2, MP2 Hessian
   Martin Krupicka        : AUTO-CI
   Lucas Lang             : DCDCAS
   Dagmar Lenk            : GEPOL surface, SMD
   Dimitrios Liakos       : Extrapolation schemes; Compound Job, initial MDCI parallelization
   Dimitrios Manganas     : Further ROCIS development; embedding schemes
   Dimitrios Pantazis     : SARC Basis sets
   Taras Petrenko         : DFT Hessian,TD-DFT gradient, ASA, ECA, R-Raman, ABS, FL, XAS/XES, NRVS
   Peter Pinski           : DLPNO-MP2, DLPNO-MP2 Gradient
   Christoph Reimann      : Effective Core Potentials
   Marius Retegan         : Local ZFS, SOC
   Christoph Riplinger    : Optimizer, TS searches, QM/MM, DLPNO-CCSD(T), (RO)-DLPNO pert. Triples
   Tobias Risthaus        : Range-separated hybrids, TD-DFT gradient, RPA, STAB
   Michael Roemelt        : Original ROCIS implementation
   Masaaki Saitow         : Open-shell DLPNO-CCSD energy and density
   Barbara Sandhoefer     : DKH picture change effects
   Avijit Sen             : IP-ROCIS
   Kantharuban Sivalingam : CASSCF convergence, NEVPT2, FIC-MRCI
   Bernardo de Souza      : ESD, SOC TD-DFT
   Georgi Stoychev        : AutoAux, RI-MP2 NMR
   Willem Van den Heuvel  : Paramagnetic NMR
   Boris Wezisla          : Elementary symmetry handling
   Frank Wennmohs         : Technical directorship


 We gratefully acknowledge several colleagues who have allowed us to
 interface, adapt or use parts of their codes:
   Stefan Grimme, W. Hujo, H. Kruse,             : VdW corrections, initial TS optimization,
                  C. Bannwarth                     DFT functionals, gCP, sTDA/sTD-DF
   Ed Valeev, F. Pavosevic, A. Kumar             : LibInt (2-el integral package), F12 methods
   Garnet Chan, S. Sharma, J. Yang, R. Olivares  : DMRG
   Ulf Ekstrom                                   : XCFun DFT Library
   Mihaly Kallay                                 : mrcc  (arbitrary order and MRCC methods)
   Andreas Klamt, Michael Diedenhofen            : otool_cosmo (COSMO solvation model)
   Jiri Pittner, Ondrej Demel                    : Mk-CCSD
   Frank Weinhold                                : gennbo (NPA and NBO analysis)
   Christopher J. Cramer and Donald G. Truhlar   : smd solvation model
   Lars Goerigk                                  : TD-DFT with DH, B97 family of functionals
   V. Asgeirsson, H. Jonsson                     : NEB implementation
   FAccTs GmbH                                   : IRC, NEB, NEB-TS, Multilevel, MM, QM/MM, CI optimization
   S Lehtola, MJT Oliveira, MAL Marques          : LibXC Library


 Your calculation uses the libint2 library for the computation of 2-el integrals
 For citations please refer to: http://libint.valeyev.net

 Your ORCA version has been built with support for libXC version: 4.2.3
 For citations please refer to: https://tddft.org/programs/libxc/

 This ORCA versions uses:
   CBLAS   interface :  Fast vector & matrix operations
   LAPACKE interface :  Fast linear algebra routines
   SCALAPACK package :  Parallel linear algebra routines


Your calculation utilizes the atom-pairwise dispersion correction
with the Becke-Johnson damping scheme (D3BJ)
Cite in your paper:
S.Grimme, S.Ehrlich, L.Goerigk, J Comput Chem, (2011), 32, 1456–1465 
S.Grimme, J.Antony, S.Ehrlich and H.Krieg, J.Chem.Phys., 132, (2010), 154104 
   

Your calculation employs the composite approach B97-3c by Grimme and coworkers.
For the correct reference, please check the publication list of the Grimme group:
http://www.thch.uni-bonn.de/tc/index.php?section=publikationen&subsection=grimme#2017
   

XCFun DFT library Copyright 2009-2010 Ulf Ekstrom and contributors.
See http://admol.org/xcfun for more information. This is free soft-
ware; see the source code for copying conditions. There is ABSOLUTELY
NO WARRANTY; not even for MERCHANTABILITY or FITNESS FOR A PARTICULAR
PURPOSE. For details see the documentation. Scientific users of this 
library should cite U. Ekstrom, L. Visscher, R. Bast, A. J. Thorvald-
sen and K. Ruud; J.Chem.Theor.Comp. 2010, DOI: 10.1021/ct100117s
XCFun Version 0.99 
----- Orbital basis set information -----
Your calculation utilizes the basis: def2-mTZVP
----- AuxJ basis set information -----
Your calculation utilizes the basis: def2-mTZVP/J
================================================================================
                                        WARNINGS
                       Please study these warnings very carefully!
================================================================================


WARNING: Geometry Optimization
  ===> : Switching off AutoStart
         For restart on a previous wavefunction, please use MOREAD

INFO   : the flag for use of LIBINT has been found!

================================================================================
                                       INPUT FILE
================================================================================
NAME = tris-ethylenediamine-CoIII.inp
|  1> ! B97-3c Opt Freq TightOpt TightSCF
|  2> 
|  3> %pal
|  4>  nprocs 12
|  5> end
|  6> 
|  7> *xyz +3 1
|  8> Co       0.000000000      0.000000000      0.000000000
|  9> N       -0.131259695     -1.821066552     -1.153037228
| 10> N       -0.131259695      1.821066552      1.153037228
| 11> N       -1.511460048      1.024207506     -1.153037228
| 12> N        1.642719743      0.796859045     -1.153037228
| 13> N       -1.511460048     -1.024207506      1.153037228
| 14> N        1.642719743     -0.796859045      1.153037228
| 15> C       -0.880929613     -2.869131817     -0.362457061
| 16> H        0.779332409     -2.214283110     -1.458607081
| 17> C       -2.044276234     -2.197473332      0.362457061
| 18> H       -0.173983496     -3.346322577      0.353949598
| 19> H       -1.245222955     -3.682512406     -1.032136434
| 20> H       -2.566537816     -2.919650916      1.032136434
| 21> H       -2.811008612     -1.823835416     -0.353949598
| 22> H       -2.307291629     -0.432219891      1.458607081
| 23> C        2.925205847     -0.671658485      0.362457061
| 24> H        1.527959220     -1.782063219      1.458607081
| 25> C        2.925205847      0.671658485     -0.362457061
| 26> H        2.984992109     -1.522487161     -0.353949598
| 27> H        3.811760771     -0.762861491      1.032136434
| 28> H        3.811760771      0.762861491     -1.032136434
| 29> H        2.984992109      1.522487161      0.353949598
| 30> H        1.527959220      1.782063219     -1.458607081
| 31> C       -2.044276234      2.197473332     -0.362457061
| 32> H       -2.307291629      0.432219891     -1.458607081
| 33> C       -0.880929613      2.869131817      0.362457061
| 34> H       -2.811008612      1.823835416      0.353949598
| 35> H       -2.566537816      2.919650916     -1.032136434
| 36> H        0.779332409      2.214283110      1.458607081
| 37> H       -1.245222955      3.682512406      1.032136434
| 38> H       -0.173983496      3.346322577     -0.353949598
| 39> H       -0.636747356     -1.647543423     -2.044917606
| 40> H       -1.108440780     -1.375211097      2.044917606
| 41> H        1.745188136      0.272332325     -2.044917606
| 42> H        1.745188136     -0.272332325      2.044917606
| 43> H       -0.636747356      1.647543423      2.044917606
| 44> H       -1.108440780      1.375211097     -2.044917606
| 45> *
| 46> 
| 47>                          ****END OF INPUT****
================================================================================

                       *****************************
                       * Geometry Optimization Run *
                       *****************************

Geometry optimization settings:
Update method            Update   .... BFGS
Choice of coordinates    CoordSys .... Z-matrix Internals
Initial Hessian          InHess   .... Almoef's Model

Convergence Tolerances:
Energy Change            TolE     ....  1.0000e-06 Eh
Max. Gradient            TolMAXG  ....  1.0000e-04 Eh/bohr
RMS Gradient             TolRMSG  ....  3.0000e-05 Eh/bohr
Max. Displacement        TolMAXD  ....  1.0000e-03 bohr
RMS Displacement         TolRMSD  ....  6.0000e-04 bohr
Strict Convergence                ....  False
------------------------------------------------------------------------------
                        ORCA OPTIMIZATION COORDINATE SETUP
------------------------------------------------------------------------------

The optimization will be done in new redundant internal coordinates
Making redundant internal coordinates   ...  (new redundants) done
Evaluating the initial hessian          ...  (Almloef) done
Evaluating the coordinates              ...  done
Calculating the B-matrix                .... done
Calculating the G-matrix                .... done
Diagonalizing the G-matrix              .... done
The first mode is                       ....  192
The number of degrees of freedom        ....  105

    -----------------------------------------------------------------
                    Redundant Internal Coordinates


    -----------------------------------------------------------------
         Definition                    Initial Value    Approx d2E/dq
    -----------------------------------------------------------------
      1. B(N   1,Co  0)                  2.1594         0.335330   
      2. B(N   2,Co  0)                  2.1594         0.335330   
      3. B(N   3,Co  0)                  2.1594         0.335330   
      4. B(N   4,Co  0)                  2.1594         0.335330   
      5. B(N   5,Co  0)                  2.1594         0.335330   
      6. B(N   6,Co  0)                  2.1594         0.335330   
      7. B(C   7,N   1)                  1.5118         0.357760   
      8. B(H   8,N   1)                  1.0379         0.390601   
      9. B(C   9,C   7)                  1.5264         0.378501   
     10. B(C   9,N   5)                  1.5118         0.357760   
     11. B(H  10,C   7)                  1.1139         0.329859   
     12. B(H  11,C   7)                  1.1148         0.328749   
     13. B(H  12,C   9)                  1.1148         0.328749   
     14. B(H  13,C   9)                  1.1139         0.329859   
     15. B(H  14,N   5)                  1.0379         0.390601   
     16. B(C  15,N   6)                  1.5118         0.357760   
     17. B(H  16,N   6)                  1.0379         0.390601   
     18. B(C  17,C  15)                  1.5264         0.378501   
     19. B(C  17,N   4)                  1.5118         0.357760   
     20. B(H  18,C  15)                  1.1139         0.329859   
     21. B(H  19,C  15)                  1.1148         0.328749   
     22. B(H  20,C  17)                  1.1148         0.328749   
     23. B(H  21,C  17)                  1.1139         0.329859   
     24. B(H  22,N   4)                  1.0379         0.390601   
     25. B(C  23,N   3)                  1.5118         0.357760   
     26. B(H  24,N   3)                  1.0379         0.390601   
     27. B(C  25,C  23)                  1.5264         0.378501   
     28. B(C  25,N   2)                  1.5118         0.357760   
     29. B(H  26,C  23)                  1.1139         0.329859   
     30. B(H  27,C  23)                  1.1148         0.328749   
     31. B(H  28,N   2)                  1.0379         0.390601   
     32. B(H  29,C  25)                  1.1148         0.328749   
     33. B(H  30,C  25)                  1.1139         0.329859   
     34. B(H  31,N   1)                  1.0397         0.387911   
     35. B(H  32,N   5)                  1.0397         0.387911   
     36. B(H  33,N   4)                  1.0397         0.387911   
     37. B(H  34,N   6)                  1.0397         0.387911   
     38. B(H  35,N   2)                  1.0397         0.387911   
     39. B(H  36,N   3)                  1.0397         0.387911   
     40. A(N   4,Co  0,N   5)          173.0302         0.433433   
     41. A(N   1,Co  0,N   3)           94.1477         0.433433   
     42. A(N   1,Co  0,N   4)           94.1477         0.433433   
     43. A(N   4,Co  0,N   6)           80.9428         0.433433   
     44. A(N   5,Co  0,N   6)           94.1477         0.433433   
     45. A(N   2,Co  0,N   3)           80.9428         0.433433   
     46. A(N   2,Co  0,N   4)           91.1549         0.433433   
     47. A(N   3,Co  0,N   6)          173.0302         0.433433   
     48. A(N   1,Co  0,N   5)           80.9428         0.433433   
     49. A(N   2,Co  0,N   6)           94.1477         0.433433   
     50. A(N   2,Co  0,N   5)           94.1477         0.433433   
     51. A(N   1,Co  0,N   6)           91.1549         0.433433   
     52. A(N   3,Co  0,N   5)           91.1549         0.433433   
     53. A(N   3,Co  0,N   4)           94.1477         0.433433   
     54. A(N   1,Co  0,N   2)          173.0302         0.433433   
     55. A(Co  0,N   1,H   8)          115.0486         0.354434   
     56. A(Co  0,N   1,C   7)          109.6063         0.390902   
     57. A(H   8,N   1,H  31)          103.7227         0.293235   
     58. A(Co  0,N   1,H  31)          110.2938         0.354019   
     59. A(C   7,N   1,H   8)          109.0495         0.321658   
     60. A(C   7,N   1,H  31)          108.8562         0.321294   
     61. A(Co  0,N   2,C  25)          109.6063         0.390902   
     62. A(Co  0,N   2,H  28)          115.0486         0.354434   
     63. A(C  25,N   2,H  35)          108.8562         0.321294   
     64. A(Co  0,N   2,H  35)          110.2938         0.354019   
     65. A(H  28,N   2,H  35)          103.7227         0.293235   
     66. A(C  25,N   2,H  28)          109.0495         0.321658   
     67. A(Co  0,N   3,H  36)          110.2938         0.354019   
     68. A(C  23,N   3,H  24)          109.0495         0.321658   
     69. A(Co  0,N   3,H  24)          115.0486         0.354434   
     70. A(Co  0,N   3,C  23)          109.6063         0.390902   
     71. A(C  23,N   3,H  36)          108.8562         0.321294   
     72. A(H  24,N   3,H  36)          103.7227         0.293235   
     73. A(H  22,N   4,H  33)          103.7227         0.293235   
     74. A(C  17,N   4,H  22)          109.0495         0.321658   
     75. A(Co  0,N   4,H  22)          115.0486         0.354434   
     76. A(C  17,N   4,H  33)          108.8562         0.321294   
     77. A(Co  0,N   4,C  17)          109.6063         0.390902   
     78. A(Co  0,N   4,H  33)          110.2938         0.354019   
     79. A(H  14,N   5,H  32)          103.7227         0.293235   
     80. A(Co  0,N   5,C   9)          109.6063         0.390902   
     81. A(C   9,N   5,H  32)          108.8562         0.321294   
     82. A(Co  0,N   5,H  32)          110.2938         0.354019   
     83. A(C   9,N   5,H  14)          109.0495         0.321658   
     84. A(Co  0,N   5,H  14)          115.0486         0.354434   
     85. A(C  15,N   6,H  34)          108.8562         0.321294   
     86. A(H  16,N   6,H  34)          103.7227         0.293235   
     87. A(Co  0,N   6,H  34)          110.2938         0.354019   
     88. A(C  15,N   6,H  16)          109.0495         0.321658   
     89. A(Co  0,N   6,H  16)          115.0486         0.354434   
     90. A(Co  0,N   6,C  15)          109.6063         0.390902   
     91. A(H  10,C   7,H  11)          106.3310         0.282834   
     92. A(C   9,C   7,H  11)          110.9334         0.320201   
     93. A(N   1,C   7,H  11)          110.7154         0.315393   
     94. A(C   9,C   7,H  10)          111.5164         0.320378   
     95. A(N   1,C   7,H  10)          108.5793         0.315566   
     96. A(N   1,C   7,C   9)          108.7376         0.359243   
     97. A(H  12,C   9,H  13)          106.3310         0.282834   
     98. A(C   7,C   9,H  13)          111.5164         0.320378   
     99. A(N   5,C   9,H  13)          108.5793         0.315566   
    100. A(C   7,C   9,H  12)          110.9334         0.320201   
    101. A(N   5,C   9,H  12)          110.7154         0.315393   
    102. A(N   5,C   9,C   7)          108.7376         0.359243   
    103. A(H  18,C  15,H  19)          106.3310         0.282834   
    104. A(C  17,C  15,H  19)          110.9334         0.320201   
    105. A(N   6,C  15,H  19)          110.7154         0.315393   
    106. A(C  17,C  15,H  18)          111.5164         0.320378   
    107. A(N   6,C  15,H  18)          108.5793         0.315566   
    108. A(N   6,C  15,C  17)          108.7376         0.359243   
    109. A(H  20,C  17,H  21)          106.3310         0.282834   
    110. A(C  15,C  17,H  21)          111.5164         0.320378   
    111. A(N   4,C  17,H  21)          108.5793         0.315566   
    112. A(C  15,C  17,H  20)          110.9334         0.320201   
    113. A(N   4,C  17,H  20)          110.7154         0.315393   
    114. A(N   4,C  17,C  15)          108.7376         0.359243   
    115. A(H  26,C  23,H  27)          106.3310         0.282834   
    116. A(C  25,C  23,H  27)          110.9334         0.320201   
    117. A(N   3,C  23,H  27)          110.7154         0.315393   
    118. A(C  25,C  23,H  26)          111.5164         0.320378   
    119. A(N   3,C  23,H  26)          108.5793         0.315566   
    120. A(N   3,C  23,C  25)          108.7376         0.359243   
    121. A(N   2,C  25,C  23)          108.7376         0.359243   
    122. A(H  29,C  25,H  30)          106.3310         0.282834   
    123. A(C  23,C  25,H  30)          111.5164         0.320378   
    124. A(N   2,C  25,H  30)          108.5793         0.315566   
    125. A(C  23,C  25,H  29)          110.9334         0.320201   
    126. A(N   2,C  25,H  29)          110.7154         0.315393   
    127. D(H  31,N   1,Co  0,N   6)   -160.2288         0.002132   
    128. D(C   7,N   1,Co  0,N   3)   -104.5910         0.002132   
    129. D(C   7,N   1,Co  0,N   5)    -14.0808         0.002132   
    130. D(C   7,N   1,Co  0,N   4)    160.9373         0.002132   
    131. D(H  31,N   1,Co  0,N   5)    105.7548         0.002132   
    132. D(H  31,N   1,Co  0,N   2)     60.2129         0.002132   
    133. D(H   8,N   1,Co  0,N   5)   -137.3733         0.002132   
    134. D(H   8,N   1,Co  0,N   3)    132.1166         0.002132   
    135. D(C   7,N   1,Co  0,N   6)     79.9355         0.002132   
    136. D(H   8,N   1,Co  0,N   2)    177.0848         0.002132   
    137. D(C   7,N   1,Co  0,N   2)    -59.6228         0.002132   
    138. D(H   8,N   1,Co  0,N   4)     37.6449         0.002132   
    139. D(H  31,N   1,Co  0,N   4)    -79.2270         0.002132   
    140. D(H  31,N   1,Co  0,N   3)     15.2446         0.002132   
    141. D(H   8,N   1,Co  0,N   6)    -43.3569         0.002132   
    142. D(H  35,N   2,Co  0,N   5)     15.2446         0.002132   
    143. D(H  28,N   2,Co  0,N   3)   -137.3733         0.002132   
    144. D(H  35,N   2,Co  0,N   3)    105.7548         0.002132   
    145. D(H  28,N   2,Co  0,N   1)    177.0848         0.002132   
    146. D(H  28,N   2,Co  0,N   4)    -43.3569         0.002132   
    147. D(H  35,N   2,Co  0,N   1)     60.2129         0.002132   
    148. D(H  35,N   2,Co  0,N   4)   -160.2288         0.002132   
    149. D(C  25,N   2,Co  0,N   5)   -104.5910         0.002132   
    150. D(H  28,N   2,Co  0,N   6)     37.6449         0.002132   
    151. D(C  25,N   2,Co  0,N   6)    160.9373         0.002132   
    152. D(C  25,N   2,Co  0,N   1)    -59.6228         0.002132   
    153. D(H  35,N   2,Co  0,N   6)    -79.2270         0.002132   
    154. D(H  28,N   2,Co  0,N   5)    132.1166         0.002132   
    155. D(C  25,N   2,Co  0,N   3)    -14.0808         0.002132   
    156. D(C  25,N   2,Co  0,N   4)     79.9355         0.002132   
    157. D(C  23,N   3,Co  0,N   1)    160.9373         0.002132   
    158. D(H  36,N   3,Co  0,N   5)   -160.2288         0.002132   
    159. D(H  24,N   3,Co  0,N   6)    177.0848         0.002132   
    160. D(H  36,N   3,Co  0,N   1)    -79.2270         0.002132   
    161. D(H  24,N   3,Co  0,N   5)    -43.3569         0.002132   
    162. D(H  36,N   3,Co  0,N   6)     60.2129         0.002132   
    163. D(H  24,N   3,Co  0,N   2)   -137.3733         0.002132   
    164. D(H  24,N   3,Co  0,N   4)    132.1166         0.002132   
    165. D(H  24,N   3,Co  0,N   1)     37.6449         0.002132   
    166. D(C  23,N   3,Co  0,N   4)   -104.5910         0.002132   
    167. D(C  23,N   3,Co  0,N   5)     79.9355         0.002132   
    168. D(C  23,N   3,Co  0,N   6)    -59.6228         0.002132   
    169. D(C  23,N   3,Co  0,N   2)    -14.0808         0.002132   
    170. D(H  36,N   3,Co  0,N   4)     15.2446         0.002132   
    171. D(H  36,N   3,Co  0,N   2)    105.7548         0.002132   
    172. D(H  33,N   4,Co  0,N   6)    105.7548         0.002132   
    173. D(H  33,N   4,Co  0,N   5)     60.2129         0.002132   
    174. D(H  33,N   4,Co  0,N   3)    -79.2270         0.002132   
    175. D(H  33,N   4,Co  0,N   1)     15.2446         0.002132   
    176. D(H  22,N   4,Co  0,N   5)    177.0848         0.002132   
    177. D(H  22,N   4,Co  0,N   3)     37.6449         0.002132   
    178. D(H  22,N   4,Co  0,N   2)    -43.3569         0.002132   
    179. D(H  33,N   4,Co  0,N   2)   -160.2288         0.002132   
    180. D(H  22,N   4,Co  0,N   6)   -137.3733         0.002132   
    181. D(H  22,N   4,Co  0,N   1)    132.1166         0.002132   
    182. D(C  17,N   4,Co  0,N   6)    -14.0808         0.002132   
    183. D(C  17,N   4,Co  0,N   5)    -59.6228         0.002132   
    184. D(C  17,N   4,Co  0,N   3)    160.9373         0.002132   
    185. D(C  17,N   4,Co  0,N   2)     79.9355         0.002132   
    186. D(C  17,N   4,Co  0,N   1)   -104.5910         0.002132   
    187. D(C   9,N   5,Co  0,N   2)    160.9373         0.002132   
    188. D(C   9,N   5,Co  0,N   3)     79.9355         0.002132   
    189. D(C   9,N   5,Co  0,N   1)    -14.0808         0.002132   
    190. D(H  32,N   5,Co  0,N   4)     60.2129         0.002132   
    191. D(H  32,N   5,Co  0,N   3)   -160.2288         0.002132   
    192. D(H  32,N   5,Co  0,N   2)    -79.2270         0.002132   
    193. D(H  14,N   5,Co  0,N   2)     37.6449         0.002132   
    194. D(H  14,N   5,Co  0,N   4)    177.0848         0.002132   
    195. D(H  14,N   5,Co  0,N   3)    -43.3569         0.002132   
    196. D(H  32,N   5,Co  0,N   1)    105.7548         0.002132   
    197. D(H  14,N   5,Co  0,N   1)   -137.3733         0.002132   
    198. D(C   9,N   5,Co  0,N   6)   -104.5910         0.002132   
    199. D(C   9,N   5,Co  0,N   4)    -59.6228         0.002132   
    200. D(H  32,N   5,Co  0,N   6)     15.2446         0.002132   
    201. D(H  14,N   5,Co  0,N   6)    132.1166         0.002132   
    202. D(H  34,N   6,Co  0,N   5)    -79.2270         0.002132   
    203. D(H  34,N   6,Co  0,N   4)    105.7548         0.002132   
    204. D(H  34,N   6,Co  0,N   3)     60.2129         0.002132   
    205. D(H  34,N   6,Co  0,N   1)   -160.2288         0.002132   
    206. D(H  16,N   6,Co  0,N   4)   -137.3733         0.002132   
    207. D(H  16,N   6,Co  0,N   2)    132.1166         0.002132   
    208. D(H  16,N   6,Co  0,N   1)    -43.3569         0.002132   
    209. D(C  15,N   6,Co  0,N   5)    160.9373         0.002132   
    210. D(C  15,N   6,Co  0,N   4)    -14.0808         0.002132   
    211. D(C  15,N   6,Co  0,N   3)    -59.6228         0.002132   
    212. D(H  34,N   6,Co  0,N   2)     15.2446         0.002132   
    213. D(H  16,N   6,Co  0,N   5)     37.6449         0.002132   
    214. D(C  15,N   6,Co  0,N   2)   -104.5910         0.002132   
    215. D(C  15,N   6,Co  0,N   1)     79.9355         0.002132   
    216. D(H  16,N   6,Co  0,N   3)    177.0848         0.002132   
    217. D(H  11,C   7,N   1,H  31)     41.1301         0.011773   
    218. D(H  11,C   7,N   1,H   8)    -71.3973         0.011773   
    219. D(H  11,C   7,N   1,Co  0)    161.8415         0.011773   
    220. D(H  10,C   7,N   1,H  31)    157.5066         0.011773   
    221. D(H  10,C   7,N   1,H   8)     44.9792         0.011773   
    222. D(H  10,C   7,N   1,Co  0)    -81.7820         0.011773   
    223. D(C   9,C   7,N   1,H  31)    -80.9860         0.011773   
    224. D(C   9,C   7,N   1,H   8)    166.4865         0.011773   
    225. D(C   9,C   7,N   1,Co  0)     39.7254         0.011773   
    226. D(H  13,C   9,C   7,H  11)    -55.0636         0.011423   
    227. D(H  13,C   9,C   7,H  10)   -173.3850         0.011423   
    228. D(H  13,C   9,C   7,N   1)     66.9201         0.011423   
    229. D(H  12,C   9,C   7,H  11)     63.2578         0.011423   
    230. D(H  12,C   9,C   7,H  10)    -55.0636         0.011423   
    231. D(H  12,C   9,C   7,N   1)   -174.7585         0.011423   
    232. D(N   5,C   9,C   7,H  11)   -174.7585         0.011423   
    233. D(N   5,C   9,C   7,H  10)     66.9201         0.011423   
    234. D(N   5,C   9,C   7,N   1)    -52.7748         0.011423   
    235. D(H  13,C   9,N   5,H  32)    157.5066         0.011773   
    236. D(H  13,C   9,N   5,H  14)     44.9792         0.011773   
    237. D(H  13,C   9,N   5,Co  0)    -81.7820         0.011773   
    238. D(H  12,C   9,N   5,H  32)     41.1301         0.011773   
    239. D(H  12,C   9,N   5,H  14)    -71.3973         0.011773   
    240. D(H  12,C   9,N   5,Co  0)    161.8415         0.011773   
    241. D(C   7,C   9,N   5,H  32)    -80.9860         0.011773   
    242. D(C   7,C   9,N   5,H  14)    166.4865         0.011773   
    243. D(C   7,C   9,N   5,Co  0)     39.7254         0.011773   
    244. D(H  19,C  15,N   6,H  34)     41.1301         0.011773   
    245. D(H  19,C  15,N   6,H  16)    -71.3973         0.011773   
    246. D(H  19,C  15,N   6,Co  0)    161.8415         0.011773   
    247. D(H  18,C  15,N   6,H  34)    157.5066         0.011773   
    248. D(H  18,C  15,N   6,H  16)     44.9792         0.011773   
    249. D(H  18,C  15,N   6,Co  0)    -81.7820         0.011773   
    250. D(C  17,C  15,N   6,H  34)    -80.9860         0.011773   
    251. D(C  17,C  15,N   6,H  16)    166.4865         0.011773   
    252. D(C  17,C  15,N   6,Co  0)     39.7254         0.011773   
    253. D(C  15,C  17,N   4,Co  0)     39.7254         0.011773   
    254. D(H  21,C  17,C  15,H  19)    -55.0636         0.011423   
    255. D(H  21,C  17,C  15,N   6)     66.9201         0.011423   
    256. D(H  20,C  17,C  15,H  19)     63.2578         0.011423   
    257. D(H  20,C  17,C  15,H  18)    -55.0636         0.011423   
    258. D(N   4,C  17,C  15,H  19)   -174.7585         0.011423   
    259. D(N   4,C  17,C  15,H  18)     66.9201         0.011423   
    260. D(N   4,C  17,C  15,N   6)    -52.7748         0.011423   
    261. D(H  21,C  17,N   4,H  33)    157.5066         0.011773   
    262. D(H  21,C  17,N   4,H  22)     44.9792         0.011773   
    263. D(H  21,C  17,N   4,Co  0)    -81.7820         0.011773   
    264. D(H  20,C  17,C  15,N   6)   -174.7585         0.011423   
    265. D(H  20,C  17,N   4,H  33)     41.1301         0.011773   
    266. D(H  20,C  17,N   4,H  22)    -71.3973         0.011773   
    267. D(H  20,C  17,N   4,Co  0)    161.8415         0.011773   
    268. D(H  21,C  17,C  15,H  18)   -173.3850         0.011423   
    269. D(C  15,C  17,N   4,H  33)    -80.9860         0.011773   
    270. D(C  15,C  17,N   4,H  22)    166.4865         0.011773   
    271. D(H  27,C  23,N   3,H  36)     41.1301         0.011773   
    272. D(H  27,C  23,N   3,H  24)    -71.3973         0.011773   
    273. D(H  27,C  23,N   3,Co  0)    161.8415         0.011773   
    274. D(H  26,C  23,N   3,H  36)    157.5066         0.011773   
    275. D(H  26,C  23,N   3,H  24)     44.9792         0.011773   
    276. D(H  26,C  23,N   3,Co  0)    -81.7820         0.011773   
    277. D(C  25,C  23,N   3,H  36)    -80.9860         0.011773   
    278. D(C  25,C  23,N   3,H  24)    166.4865         0.011773   
    279. D(C  25,C  23,N   3,Co  0)     39.7254         0.011773   
    280. D(H  30,C  25,C  23,H  26)   -173.3850         0.011423   
    281. D(H  30,C  25,C  23,N   3)     66.9201         0.011423   
    282. D(H  29,C  25,C  23,H  27)     63.2578         0.011423   
    283. D(H  29,C  25,C  23,N   3)   -174.7585         0.011423   
    284. D(N   2,C  25,C  23,H  27)   -174.7585         0.011423   
    285. D(N   2,C  25,C  23,H  26)     66.9201         0.011423   
    286. D(N   2,C  25,C  23,N   3)    -52.7748         0.011423   
    287. D(H  30,C  25,N   2,H  35)    157.5066         0.011773   
    288. D(H  30,C  25,N   2,H  28)     44.9792         0.011773   
    289. D(H  30,C  25,N   2,Co  0)    -81.7820         0.011773   
    290. D(H  29,C  25,N   2,H  35)     41.1301         0.011773   
    291. D(H  29,C  25,N   2,H  28)    -71.3973         0.011773   
    292. D(H  29,C  25,C  23,H  26)    -55.0636         0.011423   
    293. D(H  29,C  25,N   2,Co  0)    161.8415         0.011773   
    294. D(C  23,C  25,N   2,H  35)    -80.9860         0.011773   
    295. D(C  23,C  25,N   2,H  28)    166.4865         0.011773   
    296. D(H  30,C  25,C  23,H  27)    -55.0636         0.011423   
    297. D(C  23,C  25,N   2,Co  0)     39.7254         0.011773   
    -----------------------------------------------------------------

Number of atoms                         .... 37
Number of degrees of freedom            .... 297

         *************************************************************
         *                GEOMETRY OPTIMIZATION CYCLE   1            *
         *************************************************************
---------------------------------
CARTESIAN COORDINATES (ANGSTROEM)
---------------------------------
  Co     0.000000    0.000000    0.000000
  N     -0.131260   -1.821067   -1.153037
  N     -0.131260    1.821067    1.153037
  N     -1.511460    1.024208   -1.153037
  N      1.642720    0.796859   -1.153037
  N     -1.511460   -1.024208    1.153037
  N      1.642720   -0.796859    1.153037
  C     -0.880930   -2.869132   -0.362457
  H      0.779332   -2.214283   -1.458607
  C     -2.044276   -2.197473    0.362457
  H     -0.173983   -3.346323    0.353950
  H     -1.245223   -3.682512   -1.032136
  H     -2.566538   -2.919651    1.032136
  H     -2.811009   -1.823835   -0.353950
  H     -2.307292   -0.432220    1.458607
  C      2.925206   -0.671658    0.362457
  H      1.527959   -1.782063    1.458607
  C      2.925206    0.671658   -0.362457
  H      2.984992   -1.522487   -0.353950
  H      3.811761   -0.762861    1.032136
  H      3.811761    0.762861   -1.032136
  H      2.984992    1.522487    0.353950
  H      1.527959    1.782063   -1.458607
  C     -2.044276    2.197473   -0.362457
  H     -2.307292    0.432220   -1.458607
  C     -0.880930    2.869132    0.362457
  H     -2.811009    1.823835    0.353950
  H     -2.566538    2.919651   -1.032136
  H      0.779332    2.214283    1.458607
  H     -1.245223    3.682512    1.032136
  H     -0.173983    3.346323   -0.353950
  H     -0.636747   -1.647543   -2.044918
  H     -1.108441   -1.375211    2.044918
  H      1.745188    0.272332   -2.044918
  H      1.745188   -0.272332    2.044918
  H     -0.636747    1.647543    2.044918
  H     -1.108441    1.375211   -2.044918

----------------------------
CARTESIAN COORDINATES (A.U.)
----------------------------
  NO LB      ZA    FRAG     MASS         X           Y           Z
   0 Co   27.0000    0    58.930    0.000000    0.000000    0.000000
   1 N     7.0000    0    14.007   -0.248045   -3.441317   -2.178925
   2 N     7.0000    0    14.007   -0.248045    3.441317    2.178925
   3 N     7.0000    0    14.007   -2.856246    1.935472   -2.178925
   4 N     7.0000    0    14.007    3.104290    1.505845   -2.178925
   5 N     7.0000    0    14.007   -2.856246   -1.935472    2.178925
   6 N     7.0000    0    14.007    3.104290   -1.505845    2.178925
   7 C     6.0000    0    12.011   -1.664716   -5.421873   -0.684945
   8 H     1.0000    0     1.008    1.472725   -4.184389   -2.756368
   9 C     6.0000    0    12.011   -3.863122   -4.152623    0.684945
  10 H     1.0000    0     1.008   -0.328781   -6.323633    0.668868
  11 H     1.0000    0     1.008   -2.353130   -6.958940   -1.950455
  12 H     1.0000    0     1.008   -4.850054   -5.517341    1.950455
  13 H     1.0000    0     1.008   -5.312036   -3.446549   -0.668868
  14 H     1.0000    0     1.008   -4.360149   -0.816777    2.756368
  15 C     6.0000    0    12.011    5.527838   -1.269251    0.684945
  16 H     1.0000    0     1.008    2.887424   -3.367611    2.756368
  17 C     6.0000    0    12.011    5.527838    1.269251   -0.684945
  18 H     1.0000    0     1.008    5.640818   -2.877084   -0.668868
  19 H     1.0000    0     1.008    7.203184   -1.441599    1.950455
  20 H     1.0000    0     1.008    7.203184    1.441599   -1.950455
  21 H     1.0000    0     1.008    5.640818    2.877084    0.668868
  22 H     1.0000    0     1.008    2.887424    3.367611   -2.756368
  23 C     6.0000    0    12.011   -3.863122    4.152623   -0.684945
  24 H     1.0000    0     1.008   -4.360149    0.816777   -2.756368
  25 C     6.0000    0    12.011   -1.664716    5.421873    0.684945
  26 H     1.0000    0     1.008   -5.312036    3.446549    0.668868
  27 H     1.0000    0     1.008   -4.850054    5.517341   -1.950455
  28 H     1.0000    0     1.008    1.472725    4.184389    2.756368
  29 H     1.0000    0     1.008   -2.353130    6.958940    1.950455
  30 H     1.0000    0     1.008   -0.328781    6.323633   -0.668868
  31 H     1.0000    0     1.008   -1.203278   -3.113406   -3.864334
  32 H     1.0000    0     1.008   -2.094650   -2.598772    3.864334
  33 H     1.0000    0     1.008    3.297928    0.514634   -3.864334
  34 H     1.0000    0     1.008    3.297928   -0.514634    3.864334
  35 H     1.0000    0     1.008   -1.203278    3.113406    3.864334
  36 H     1.0000    0     1.008   -2.094650    2.598772   -3.864334

--------------------------------
INTERNAL COORDINATES (ANGSTROEM)
--------------------------------
 Co     0   0   0     0.000000000000     0.00000000     0.00000000
 N      1   0   0     2.159399764633     0.00000000     0.00000000
 N      1   2   0     2.159399764633   173.03022474     0.00000000
 N      1   2   3     2.159399764101    94.14765422   315.03176842
 N      1   2   4     2.159399764007    94.14765421   265.52833528
 N      1   2   5     2.159399764101    80.94284512   184.98181385
 N      1   2   6     2.159399764007    91.15489276    94.01637163
 C      2   1   5     1.511774714072   109.60632184   160.93734479
 H      2   1   5     1.037868092011   115.04860158    37.64491991
 C      6   1   2     1.511774714360   109.60632185   345.91915861
 H      8   2   1     1.113877163259   108.57925619   278.21799577
 H      8   2   1     1.114795086197   110.71535916   161.84153394
 H     10   6   1     1.114795086770   110.71535920   161.84153392
 H     10   6   1     1.113877162350   108.57925622   278.21799582
 H      6   1   2     1.037868092145   115.04860162   222.62673378
 C      7   1   2     1.511774714576   109.60632187    79.93553023
 H      7   1   2     1.037868092374   115.04860160   316.64310541
 C      5   1   2     1.511774714576   109.60632187   255.40900949
 H     16   7   1     1.113877162926   108.57925622   278.21799582
 H     16   7   1     1.114795086190   110.71535918   161.84153395
 H     18   5   1     1.114795086190   110.71535918   161.84153395
 H     18   5   1     1.113877162926   108.57925622   278.21799582
 H      5   1   2     1.037868092374   115.04860160   132.11658467
 C      4   1   2     1.511774714360   109.60632185   160.93734477
 H      4   1   2     1.037868092145   115.04860162    37.64491994
 C      3   1   5     1.511774714072   109.60632184    79.93553026
 H     24   4   1     1.113877162350   108.57925622   278.21799582
 H     24   4   1     1.114795086770   110.71535920   161.84153392
 H      3   1   5     1.037868092011   115.04860158   316.64310538
 H     26   3   1     1.114795086197   110.71535916   161.84153394
 H     26   3   1     1.113877163259   108.57925619   278.21799577
 H      2   1   5     1.039749325743   110.29380719   280.77297333
 H      6   1   2     1.039749325528   110.29380721   105.75478719
 H      5   1   2     1.039749325664   110.29380722    15.24463806
 H      7   1   2     1.039749325664   110.29380722   199.77115880
 H      3   1   5     1.039749325743   110.29380719   199.77115880
 H      4   1   2     1.039749325528   110.29380721   280.77297335

---------------------------
INTERNAL COORDINATES (A.U.)
---------------------------
 Co     0   0   0     0.000000000000     0.00000000     0.00000000
 N      1   0   0     4.080674168811     0.00000000     0.00000000
 N      1   2   0     4.080674168811   173.03022474     0.00000000
 N      1   2   3     4.080674167806    94.14765422   315.03176842
 N      1   2   4     4.080674167628    94.14765421   265.52833528
 N      1   2   5     4.080674167806    80.94284512   184.98181385
 N      1   2   6     4.080674167628    91.15489276    94.01637163
 C      2   1   5     2.856840185783   109.60632184   160.93734479
 H      2   1   5     1.961286457037   115.04860158    37.64491991
 C      6   1   2     2.856840186327   109.60632185   345.91915861
 H      8   2   1     2.104922785389   108.57925619   278.21799577
 H      8   2   1     2.106657408354   110.71535916   161.84153394
 H     10   6   1     2.106657409437   110.71535920   161.84153392
 H     10   6   1     2.104922783672   108.57925622   278.21799582
 H      6   1   2     1.961286457289   115.04860162   222.62673378
 C      7   1   2     2.856840186735   109.60632187    79.93553023
 H      7   1   2     1.961286457723   115.04860160   316.64310541
 C      5   1   2     2.856840186735   109.60632187   255.40900949
 H     16   7   1     2.104922784759   108.57925622   278.21799582
 H     16   7   1     2.106657408341   110.71535918   161.84153395
 H     18   5   1     2.106657408341   110.71535918   161.84153395
 H     18   5   1     2.104922784759   108.57925622   278.21799582
 H      5   1   2     1.961286457723   115.04860160   132.11658467
 C      4   1   2     2.856840186327   109.60632185   160.93734477
 H      4   1   2     1.961286457289   115.04860162    37.64491994
 C      3   1   5     2.856840185783   109.60632184    79.93553026
 H     24   4   1     2.104922783672   108.57925622   278.21799582
 H     24   4   1     2.106657409437   110.71535920   161.84153392
 H      3   1   5     1.961286457037   115.04860158   316.64310538
 H     26   3   1     2.106657408354   110.71535916   161.84153394
 H     26   3   1     2.104922785389   108.57925619   278.21799577
 H      2   1   5     1.964841473583   110.29380719   280.77297333
 H      6   1   2     1.964841473177   110.29380721   105.75478719
 H      5   1   2     1.964841473435   110.29380722    15.24463806
 H      7   1   2     1.964841473435   110.29380722   199.77115880
 H      3   1   5     1.964841473583   110.29380719   199.77115880
 H      4   1   2     1.964841473177   110.29380721   280.77297335

---------------------
BASIS SET INFORMATION
---------------------
There are 4 groups of distinct atoms

 Group   1 Type Co  : 17s11p6d contracted to 6s4p3d pattern {842111/6311/411}
 Group   2 Type N   : 11s6p1d contracted to 5s3p1d pattern {62111/411/1}
 Group   3 Type C   : 11s6p1d contracted to 5s3p1d pattern {62111/411/1}
 Group   4 Type H   : 5s contracted to 3s pattern {311}

Atom   0Co   basis set group =>   1
Atom   1N    basis set group =>   2
Atom   2N    basis set group =>   2
Atom   3N    basis set group =>   2
Atom   4N    basis set group =>   2
Atom   5N    basis set group =>   2
Atom   6N    basis set group =>   2
Atom   7C    basis set group =>   3
Atom   8H    basis set group =>   4
Atom   9C    basis set group =>   3
Atom  10H    basis set group =>   4
Atom  11H    basis set group =>   4
Atom  12H    basis set group =>   4
Atom  13H    basis set group =>   4
Atom  14H    basis set group =>   4
Atom  15C    basis set group =>   3
Atom  16H    basis set group =>   4
Atom  17C    basis set group =>   3
Atom  18H    basis set group =>   4
Atom  19H    basis set group =>   4
Atom  20H    basis set group =>   4
Atom  21H    basis set group =>   4
Atom  22H    basis set group =>   4
Atom  23C    basis set group =>   3
Atom  24H    basis set group =>   4
Atom  25C    basis set group =>   3
Atom  26H    basis set group =>   4
Atom  27H    basis set group =>   4
Atom  28H    basis set group =>   4
Atom  29H    basis set group =>   4
Atom  30H    basis set group =>   4
Atom  31H    basis set group =>   4
Atom  32H    basis set group =>   4
Atom  33H    basis set group =>   4
Atom  34H    basis set group =>   4
Atom  35H    basis set group =>   4
Atom  36H    basis set group =>   4
---------------------------------
AUXILIARY/J BASIS SET INFORMATION
---------------------------------
There are 4 groups of distinct atoms

 Group   1 Type Co  : 19s5p5d3f3g contracted to 8s5p5d2f3g pattern {121111111/11111/11111/21/111}
 Group   2 Type N   : 8s3p3d contracted to 6s3p3d pattern {311111/111/111}
 Group   3 Type C   : 8s3p3d contracted to 6s3p3d pattern {311111/111/111}
 Group   4 Type H   : 5s2p contracted to 3s1p pattern {311/2}

Atom   0Co   basis set group =>   1
Atom   1N    basis set group =>   2
Atom   2N    basis set group =>   2
Atom   3N    basis set group =>   2
Atom   4N    basis set group =>   2
Atom   5N    basis set group =>   2
Atom   6N    basis set group =>   2
Atom   7C    basis set group =>   3
Atom   8H    basis set group =>   4
Atom   9C    basis set group =>   3
Atom  10H    basis set group =>   4
Atom  11H    basis set group =>   4
Atom  12H    basis set group =>   4
Atom  13H    basis set group =>   4
Atom  14H    basis set group =>   4
Atom  15C    basis set group =>   3
Atom  16H    basis set group =>   4
Atom  17C    basis set group =>   3
Atom  18H    basis set group =>   4
Atom  19H    basis set group =>   4
Atom  20H    basis set group =>   4
Atom  21H    basis set group =>   4
Atom  22H    basis set group =>   4
Atom  23C    basis set group =>   3
Atom  24H    basis set group =>   4
Atom  25C    basis set group =>   3
Atom  26H    basis set group =>   4
Atom  27H    basis set group =>   4
Atom  28H    basis set group =>   4
Atom  29H    basis set group =>   4
Atom  30H    basis set group =>   4
Atom  31H    basis set group =>   4
Atom  32H    basis set group =>   4
Atom  33H    basis set group =>   4
Atom  34H    basis set group =>   4
Atom  35H    basis set group =>   4
Atom  36H    basis set group =>   4


           ************************************************************
           *        Program running with 12 parallel MPI-processes    *
           *              working on a common directory               *
           ************************************************************
------------------------------------------------------------------------------
                           ORCA GTO INTEGRAL CALCULATION
                           -- RI-GTO INTEGRALS CHOSEN --
------------------------------------------------------------------------------

                         BASIS SET STATISTICS AND STARTUP INFO

Gaussian basis set:
 # of primitive gaussian shells          ...  370
 # of primitive gaussian functions       ...  608
 # of contracted shells                  ...  193
 # of contracted basis functions         ...  333
 Highest angular momentum                ...    2
 Maximum contraction depth               ...    8
Auxiliary gaussian basis set:
 # of primitive gaussian shells          ...  371
 # of primitive gaussian functions       ...  755
 # of contracted shells                  ...  263
 # of contracted aux-basis functions     ...  593
 Highest angular momentum                ...    4
 Maximum contraction depth               ...   12
Ratio of auxiliary to basis functions    ...  1.78
Integral package used                  ... LIBINT
 One Electron integrals                  ... done
 Ordering auxiliary basis shells         ... done
 Integral threshhold             Thresh  ...  2.500e-11
 Primitive cut-off               TCut    ...  2.500e-12
 Pre-screening matrix                    ... done
 Shell pair data                         ... 
 Ordering of the shell pairs             ... done (   0.004 sec) 16035 of 18721 pairs
 Determination of significant pairs      ... done (   0.000 sec)
 Creation of shell pair data             ... done (   0.003 sec)
 Storage of shell pair data              ... done (   0.027 sec)
 Shell pair data done in (   0.034 sec)
 Computing two index integrals           ... done
 Cholesky decomposition of the V-matrix  ... done


Timings:
 Total evaluation time                   ...   0.536 sec (  0.009 min)
 One electron matrix time                ...   0.143 sec (  0.002 min) = 26.7%
 Schwartz matrix evaluation time         ...   0.282 sec (  0.005 min) = 52.7%
 Two index repulsion integral time       ...   0.019 sec (  0.000 min) =  3.5%
 Cholesky decomposition of V             ...   0.037 sec (  0.001 min) =  6.9%
 Three index repulsion integral time     ...   0.000 sec (  0.000 min) =  0.0%



           ************************************************************
           *        Program running with 12 parallel MPI-processes    *
           *              working on a common directory               *
           ************************************************************
-------------------------------------------------------------------------------
                                 ORCA SCF
-------------------------------------------------------------------------------

------------
SCF SETTINGS
------------
Hamiltonian:
 Density Functional     Method          .... DFT(GTOs)
 Exchange Functional    Exchange        .... B973C
 Correlation Functional Correlation     .... B973C
 Gradients option       PostSCFGGA      .... off
   Density functional embedding theory  .... OFF
 RI-approximation to the Coulomb term is turned on
   Number of auxiliary basis functions  .... 593


General Settings:
 Integral files         IntName         .... tris-ethylenediamine-CoIII
 Hartree-Fock type      HFTyp           .... RHF
 Total Charge           Charge          ....    3
 Multiplicity           Mult            ....    1
 Number of Electrons    NEL             ....  126
 Basis Dimension        Dim             ....  333
 Nuclear Repulsion      ENuc            ....   1386.7915755676 Eh

Convergence Acceleration:
 DIIS                   CNVDIIS         .... on
   Start iteration      DIISMaxIt       ....    12
   Startup error        DIISStart       ....  0.200000
   # of expansion vecs  DIISMaxEq       ....     5
   Bias factor          DIISBfac        ....   1.050
   Max. coefficient     DIISMaxC        ....  10.000
 Newton-Raphson         CNVNR           .... off
 SOSCF                  CNVSOSCF        .... off
 Level Shifting         CNVShift        .... on
   Level shift para.    LevelShift      ....    0.2500
   Turn off err/grad.   ShiftErr        ....    0.0010
 Zerner damping         CNVZerner       .... off
 Static damping         CNVDamp         .... on
   Fraction old density DampFac         ....    0.7000
   Max. Damping (<1)    DampMax         ....    0.9800
   Min. Damping (>=0)   DampMin         ....    0.0000
   Turn off err/grad.   DampErr         ....    0.1000
 Fernandez-Rico         CNVRico         .... off

SCF Procedure:
 Maximum # iterations   MaxIter         ....   125
 SCF integral mode      SCFMode         .... Direct
   Integral package                     .... LIBINT
 Reset frequency        DirectResetFreq ....    20
 Integral Threshold     Thresh          ....  2.500e-11 Eh
 Primitive CutOff       TCut            ....  2.500e-12 Eh

Convergence Tolerance:
 Convergence Check Mode ConvCheckMode   .... Total+1el-Energy
 Convergence forced     ConvForced      .... 0
 Energy Change          TolE            ....  1.000e-08 Eh
 1-El. energy change                    ....  1.000e-05 Eh
 DIIS Error             TolErr          ....  5.000e-07


Diagonalization of the overlap matrix:
Smallest eigenvalue                        ... 3.019e-04
Time for diagonalization                   ...    0.045 sec
Threshold for overlap eigenvalues          ... 1.000e-08
Number of eigenvalues below threshold      ... 0
Time for construction of square roots      ...    0.062 sec
Total time needed                          ...    0.108 sec

--------------------------------
INITIAL GUESS: MINIMAL BASIS EHT
--------------------------------
The minimal basis has 102 functions
EHT matrix was diagonalized
Basis set overlap was calculated now projecting the orbitals
Using GuessMode=FMatrix for the initial guess
C*T matrix was formed
Effective Fockian was calculated
Effective Fockian was diagonalized
Initial density was built
                      ------------------
                      INITIAL GUESS DONE
                      ------------------
-------------------
DFT GRID GENERATION
-------------------

General Integration Accuracy     IntAcc      ...  4.340
Radial Grid Type                 RadialGrid  ... Gauss-Chebyshev
Angular Grid (max. acc.)         AngularGrid ... Lebedev-194
Angular grid pruning method      GridPruning ... 3 (G Style)
Weight generation scheme         WeightScheme... Becke
Basis function cutoff            BFCut       ...    1.0000e-11
Integration weight cutoff        WCut        ...    1.0000e-14
Grids for H and He will be reduced by one unit

# of grid points (after initial pruning)     ...  81774 (   0.0 sec)
# of grid points (after weights+screening)   ...  71923 (   0.2 sec)
nearest neighbour list constructed           ...    0.0 sec
Grid point re-assignment to atoms done       ...    0.0 sec
Grid point division into batches done        ...    0.1 sec
Reduced shell lists constructed in    0.5 sec

Total number of grid points                  ...    71923
Total number of batches                      ...     1141
Average number of points per batch           ...       63
Average number of grid points per atom       ...     1944
Average number of shells per batch           ...   140.43 (72.76%)
Average number of basis functions per batch  ...   259.28 (77.86%)
Average number of large shells per batch     ...   108.53 (77.28%)
Average number of large basis fcns per batch ...   196.92 (75.95%)
Maximum spatial batch extension              ...   2.24,  2.67,  2.45 au
Average spatial batch extension              ...   0.10,  0.10,  0.10 au

Time for grid setup =    0.715 sec

--------------
SCF ITERATIONS
--------------
ITER       Energy         Delta-E        Max-DP      RMS-DP      [F,P]     Damp
               ***  Starting incremental Fock matrix formation  ***
  0  -1950.8044640265   0.000000000000 0.17362297  0.00302131  0.5792133 0.7000
  1  -1951.6811208279  -0.876656801353 0.09585694  0.00215516  0.4079763 0.7000
  2  -1952.2080067666  -0.526885938692 0.07728839  0.00168237  0.3032357 0.7000
  3  -1952.5713156850  -0.363308918484 0.05594814  0.00118650  0.2117235 0.7000
                               ***Turning on DIIS***
  4  -1952.8224598666  -0.251144181556 0.03236418  0.00079423  0.1592446 0.7000
  5  -1952.9983824452  -0.175922578607 0.02880316  0.00061822  0.1105306 0.7000
  6  -1953.1207540938  -0.122371648559 0.06384793  0.00125126  0.0839399 0.0000
  7  -1953.3953916677  -0.274637573929 0.01330866  0.00014704  0.1146615 0.7000
  8  -1953.4032094700  -0.007817802284 0.04153793  0.00042505  0.0666799 0.0000
  9  -1953.4045480147  -0.001338544740 0.01660610  0.00016292  0.0596234 0.0000
 10  -1953.4078847186  -0.003336703868 0.00825897  0.00007400  0.0189938 0.0000
 11  -1953.4083339682  -0.000449249659 0.00162962  0.00001881  0.0044364 0.0000
 12  -1953.4083650062  -0.000031037912 0.00083479  0.00001167  0.0008622 0.0000
 13  -1953.4083634019   0.000001604262 0.00019670  0.00000289  0.0016256 0.0000
 14  -1953.4083666828  -0.000003280945 0.00017317  0.00000217  0.0012351 0.0000
 15  -1953.4083694366  -0.000002753777 0.00019845  0.00000258  0.0007886 0.0000
 16  -1953.4083729164  -0.000003479810 0.00002961  0.00000041  0.0000634 0.0000
 17  -1953.4083732786  -0.000000362181 0.00001124  0.00000017  0.0000072 0.0000
 18  -1953.4083732481   0.000000030549 0.00000528  0.00000006  0.0000080 0.0000
 19  -1953.4083732183   0.000000029729 0.00000941  0.00000005  0.0000012 0.0000
               *** Restarting incremental Fock matrix formation ***
                                   *** Resetting DIIS ***
 20  -1953.4083660562   0.000007162075 0.00015648  0.00000272  0.0000051 0.0000
 21  -1953.4083659326   0.000000123614 0.00000687  0.00000007  0.0000102 0.0000
 22  -1953.4083660130  -0.000000080401 0.00000283  0.00000004  0.0000068 0.0000
 23  -1953.4083659675   0.000000045582 0.00000459  0.00000004  0.0000052 0.0000
                            ***DIIS convergence achieved***

               *****************************************************
               *                     SUCCESS                       *
               *           SCF CONVERGED AFTER  24 CYCLES          *
               *****************************************************

Setting up the final grid:

General Integration Accuracy     IntAcc      ...  4.670
Radial Grid Type                 RadialGrid  ... Gauss-Chebyshev
Angular Grid (max. acc.)         AngularGrid ... Lebedev-302
Angular grid pruning method      GridPruning ... 3 (G Style)
Weight generation scheme         WeightScheme... Becke
Basis function cutoff            BFCut       ...    1.0000e-11
Integration weight cutoff        WCut        ...    1.0000e-14
Grids for H and He will be reduced by one unit

# of grid points (after initial pruning)     ... 165640 (   0.0 sec)
# of grid points (after weights+screening)   ... 143799 (   0.5 sec)
nearest neighbour list constructed           ...    0.0 sec
Grid point re-assignment to atoms done       ...    0.1 sec
Grid point division into batches done        ...    0.5 sec
Reduced shell lists constructed in    0.8 sec

Total number of grid points                  ...   143799
Total number of batches                      ...     2264
Average number of points per batch           ...       63
Average number of grid points per atom       ...     3886
Average number of shells per batch           ...   138.52 (71.77%)
Average number of basis functions per batch  ...   255.58 (76.75%)
Average number of large shells per batch     ...   106.19 (76.67%)
Average number of large basis fcns per batch ...   192.34 (75.26%)
Maximum spatial batch extension              ...   2.36,  2.20,  2.47 au
Average spatial batch extension              ...   0.08,  0.08,  0.09 au

Final grid set up in    1.5 sec
Final integration                            ... done (   0.9 sec)
Change in XC energy                          ...    -0.002978103
Integrated number of electrons               ...   125.999927393
Previous integrated no of electrons          ...   126.001142484

----------------
TOTAL SCF ENERGY
----------------

Total Energy       :        -1953.41134414 Eh          -53155.02502 eV

Components:
Nuclear Repulsion  :         1386.79157557 Eh           37736.51726 eV
Electronic Energy  :        -3340.20291971 Eh          -90891.54228 eV
One Electron Energy:        -5395.62474001 Eh         -146822.41348 eV
Two Electron Energy:         2055.42182030 Eh           55930.87120 eV

Virial components:
Potential Energy   :        -3901.51877793 Eh         -106165.72331 eV
Kinetic Energy     :         1948.10743379 Eh           53010.69829 eV
Virial Ratio       :            2.00272260


DFT components:
N(Alpha)           :       62.999963696514 electrons
N(Beta)            :       62.999963696514 electrons
N(Total)           :      125.999927393029 electrons
E(XC)              :     -141.224611707736 Eh       
DFET-embed. en.    :        0.000000000000 Eh       

---------------
SCF CONVERGENCE
---------------

  Last Energy change         ...   -7.2129e-08  Tolerance :   1.0000e-08
  Last MAX-Density change    ...    4.2072e-06  Tolerance :   1.0000e-07
  Last RMS-Density change    ...    2.8984e-08  Tolerance :   5.0000e-09
  Last DIIS Error            ...    3.8838e-07  Tolerance :   5.0000e-07

             **** THE GBW FILE WAS UPDATED (tris-ethylenediamine-CoIII.gbw) ****
             **** DENSITY FILE WAS UPDATED (tris-ethylenediamine-CoIII.scfp) ****
             **** ENERGY FILE WAS UPDATED (tris-ethylenediamine-CoIII.en.tmp) ****
             **** THE GBW FILE WAS UPDATED (tris-ethylenediamine-CoIII.gbw) ****
             **** DENSITY FILE WAS UPDATED (tris-ethylenediamine-CoIII.scfp) ****
----------------
ORBITAL ENERGIES
----------------

  NO   OCC          E(Eh)            E(eV) 
   0   2.0000    -276.442975     -7522.3958 
   1   2.0000     -32.838297      -893.5755 
   2   2.0000     -28.596168      -778.1413 
   3   2.0000     -28.596163      -778.1412 
   4   2.0000     -28.594029      -778.0831 
   5   2.0000     -14.462839      -393.5539 
   6   2.0000     -14.462839      -393.5539 
   7   2.0000     -14.462788      -393.5525 
   8   2.0000     -14.462787      -393.5524 
   9   2.0000     -14.462704      -393.5502 
  10   2.0000     -14.462699      -393.5500 
  11   2.0000     -10.339901      -281.3630 
  12   2.0000     -10.339899      -281.3630 
  13   2.0000     -10.339794      -281.3601 
  14   2.0000     -10.339791      -281.3600 
  15   2.0000     -10.339718      -281.3580 
  16   2.0000     -10.339610      -281.3551 
  17   2.0000      -3.992208      -108.6335 
  18   2.0000      -2.719141       -73.9916 
  19   2.0000      -2.719140       -73.9916 
  20   2.0000      -2.715151       -73.8830 
  21   2.0000      -1.276633       -34.7389 
  22   2.0000      -1.268530       -34.5185 
  23   2.0000      -1.268478       -34.5170 
  24   2.0000      -1.245874       -33.9020 
  25   2.0000      -1.244436       -33.8628 
  26   2.0000      -1.244373       -33.8611 
  27   2.0000      -1.076485       -29.2926 
  28   2.0000      -1.074627       -29.2421 
  29   2.0000      -1.074546       -29.2399 
  30   2.0000      -0.968895       -26.3650 
  31   2.0000      -0.962676       -26.1957 
  32   2.0000      -0.962570       -26.1929 
  33   2.0000      -0.897789       -24.4301 
  34   2.0000      -0.897708       -24.4279 
  35   2.0000      -0.885584       -24.0980 
  36   2.0000      -0.882836       -24.0232 
  37   2.0000      -0.882798       -24.0221 
  38   2.0000      -0.877683       -23.8830 
  39   2.0000      -0.872905       -23.7529 
  40   2.0000      -0.864234       -23.5170 
  41   2.0000      -0.864165       -23.5151 
  42   2.0000      -0.806926       -21.9576 
  43   2.0000      -0.804710       -21.8973 
  44   2.0000      -0.804599       -21.8942 
  45   2.0000      -0.804141       -21.8818 
  46   2.0000      -0.786089       -21.3906 
  47   2.0000      -0.786026       -21.3889 
  48   2.0000      -0.783582       -21.3224 
  49   2.0000      -0.773095       -21.0370 
  50   2.0000      -0.773050       -21.0357 
  51   2.0000      -0.726560       -19.7707 
  52   2.0000      -0.724775       -19.7221 
  53   2.0000      -0.724653       -19.7188 
  54   2.0000      -0.720169       -19.5968 
  55   2.0000      -0.720126       -19.5956 
  56   2.0000      -0.711976       -19.3739 
  57   2.0000      -0.699704       -19.0399 
  58   2.0000      -0.690259       -18.7829 
  59   2.0000      -0.690191       -18.7810 
  60   2.0000      -0.638967       -17.3872 
  61   2.0000      -0.638943       -17.3865 
  62   2.0000      -0.636916       -17.3314 
  63   0.0000      -0.568660       -15.4740 
  64   0.0000      -0.568639       -15.4735 
  65   0.0000      -0.416495       -11.3334 
  66   0.0000      -0.391794       -10.6612 
  67   0.0000      -0.383899       -10.4464 
  68   0.0000      -0.383868       -10.4456 
  69   0.0000      -0.357461        -9.7270 
  70   0.0000      -0.357256        -9.7214 
  71   0.0000      -0.347116        -9.4455 
  72   0.0000      -0.332003        -9.0343 
  73   0.0000      -0.331973        -9.0334 
  74   0.0000      -0.324391        -8.8271 
  75   0.0000      -0.324297        -8.8246 
  76   0.0000      -0.322450        -8.7743 
  77   0.0000      -0.305470        -8.3123 
  78   0.0000      -0.291774        -7.9396 
  79   0.0000      -0.291773        -7.9395 
  80   0.0000      -0.290152        -7.8954 
  81   0.0000      -0.274550        -7.4709 
  82   0.0000      -0.274476        -7.4689 
  83   0.0000      -0.267611        -7.2821 
  84   0.0000      -0.262195        -7.1347 
  85   0.0000      -0.261266        -7.1094 
  86   0.0000      -0.261173        -7.1069 
  87   0.0000      -0.253775        -6.9056 
  88   0.0000      -0.253457        -6.8969 
  89   0.0000      -0.240433        -6.5425 
  90   0.0000      -0.235238        -6.4011 
  91   0.0000      -0.230107        -6.2615 
  92   0.0000      -0.229961        -6.2576 
  93   0.0000      -0.226162        -6.1542 
  94   0.0000      -0.226036        -6.1508 
  95   0.0000      -0.226033        -6.1507 
  96   0.0000      -0.217978        -5.9315 
  97   0.0000      -0.217947        -5.9306 
  98   0.0000      -0.209744        -5.7074 
  99   0.0000      -0.189246        -5.1496 
 100   0.0000      -0.170475        -4.6389 
 101   0.0000      -0.162036        -4.4092 
 102   0.0000      -0.156533        -4.2595 
 103   0.0000      -0.156266        -4.2522 
 104   0.0000      -0.152064        -4.1379 
 105   0.0000      -0.151937        -4.1344 
 106   0.0000      -0.139125        -3.7858 
 107   0.0000      -0.139005        -3.7825 
 108   0.0000      -0.136498        -3.7143 
 109   0.0000      -0.136492        -3.7141 
 110   0.0000      -0.136023        -3.7014 
 111   0.0000      -0.117084        -3.1860 
 112   0.0000      -0.091361        -2.4861 
 113   0.0000      -0.091008        -2.4764 
 114   0.0000      -0.077036        -2.0963 
 115   0.0000      -0.076900        -2.0926 
 116   0.0000      -0.076787        -2.0895 
 117   0.0000      -0.038634        -1.0513 
 118   0.0000      -0.038491        -1.0474 
 119   0.0000      -0.028033        -0.7628 
 120   0.0000      -0.026874        -0.7313 
 121   0.0000      -0.007004        -0.1906 
 122   0.0000      -0.006812        -0.1854 
 123   0.0000      -0.003302        -0.0899 
 124   0.0000       0.007211         0.1962 
 125   0.0000       0.007455         0.2029 
 126   0.0000       0.010323         0.2809 
 127   0.0000       0.019541         0.5317 
 128   0.0000       0.019762         0.5378 
 129   0.0000       0.020800         0.5660 
 130   0.0000       0.033917         0.9229 
 131   0.0000       0.041216         1.1215 
 132   0.0000       0.045726         1.2443 
 133   0.0000       0.045923         1.2496 
 134   0.0000       0.048557         1.3213 
 135   0.0000       0.056848         1.5469 
 136   0.0000       0.056881         1.5478 
 137   0.0000       0.059393         1.6162 
 138   0.0000       0.059465         1.6181 
 139   0.0000       0.064716         1.7610 
 140   0.0000       0.065001         1.7688 
 141   0.0000       0.069415         1.8889 
 142   0.0000       0.074943         2.0393 
 143   0.0000       0.079798         2.1714 
 144   0.0000       0.084734         2.3057 
 145   0.0000       0.084901         2.3103 
 146   0.0000       0.099650         2.7116 
 147   0.0000       0.099858         2.7173 
 148   0.0000       0.111571         3.0360 
 149   0.0000       0.116387         3.1671 
 150   0.0000       0.116613         3.1732 
 151   0.0000       0.124202         3.3797 
 152   0.0000       0.124390         3.3848 
 153   0.0000       0.143168         3.8958 
 154   0.0000       0.143575         3.9069 
 155   0.0000       0.152313         4.1446 
 156   0.0000       0.167868         4.5679 
 157   0.0000       0.179734         4.8908 
 158   0.0000       0.180044         4.8993 
 159   0.0000       0.204026         5.5518 
 160   0.0000       0.230027         6.2594 
 161   0.0000       0.230222         6.2647 
 162   0.0000       0.248957         6.7745 
 163   0.0000       0.256869         6.9898 
 164   0.0000       0.265496         7.2245 
 165   0.0000       0.266171         7.2429 
 166   0.0000       0.337344         9.1796 
 167   0.0000       0.337685         9.1889 
 168   0.0000       0.359453         9.7812 
 169   0.0000       0.376387        10.2420 
 170   0.0000       0.376522        10.2457 
 171   0.0000       0.414632        11.2827 
 172   0.0000       0.441930        12.0255 
 173   0.0000       0.447544        12.1783 
 174   0.0000       0.447847        12.1865 
 175   0.0000       0.502400        13.6710 
 176   0.0000       0.578238        15.7347 
 177   0.0000       0.578546        15.7430 
 178   0.0000       0.664804        18.0902 
 179   0.0000       0.665293        18.1035 
 180   0.0000       0.844394        22.9771 
 181   0.0000       0.844532        22.9809 
 182   0.0000       0.864854        23.5339 
 183   0.0000       0.896825        24.4038 
 184   0.0000       0.905320        24.6350 
 185   0.0000       0.905351        24.6358 
 186   0.0000       0.927507        25.2387 
 187   0.0000       0.942819        25.6554 
 188   0.0000       0.943100        25.6631 
 189   0.0000       0.954681        25.9782 
 190   0.0000       0.955103        25.9897 
 191   0.0000       0.962998        26.2045 
 192   0.0000       0.977683        26.6041 
 193   0.0000       0.994173        27.0528 
 194   0.0000       0.996967        27.1288 
 195   0.0000       0.996980        27.1292 
 196   0.0000       1.008266        27.4363 
 197   0.0000       1.008270        27.4364 
 198   0.0000       1.049057        28.5463 
 199   0.0000       1.049208        28.5504 
 200   0.0000       1.091054        29.6891 
 201   0.0000       1.116014        30.3683 
 202   0.0000       1.121023        30.5046 
 203   0.0000       1.132684        30.8219 
 204   0.0000       1.133297        30.8386 
 205   0.0000       1.147174        31.2162 
 206   0.0000       1.147195        31.2168 
 207   0.0000       1.184765        32.2391 
 208   0.0000       1.204886        32.7866 
 209   0.0000       1.205069        32.7916 
 210   0.0000       1.232416        33.5357 
 211   0.0000       1.242770        33.8175 
 212   0.0000       1.242835        33.8193 
 213   0.0000       1.304571        35.4992 
 214   0.0000       1.304644        35.5012 
 215   0.0000       1.321237        35.9527 
 216   0.0000       1.321417        35.9576 
 217   0.0000       1.335947        36.3530 
 218   0.0000       1.336108        36.3573 
 219   0.0000       1.341298        36.4986 
 220   0.0000       1.341396        36.5012 
 221   0.0000       1.352349        36.7993 
 222   0.0000       1.364630        37.1335 
 223   0.0000       1.365258        37.1506 
 224   0.0000       1.366925        37.1959 
 225   0.0000       1.366945        37.1965 
 226   0.0000       1.373832        37.3839 
 227   0.0000       1.373837        37.3840 
 228   0.0000       1.402287        38.1582 
 229   0.0000       1.411563        38.4106 
 230   0.0000       1.418673        38.6041 
 231   0.0000       1.418711        38.6051 
 232   0.0000       1.422902        38.7191 
 233   0.0000       1.423022        38.7224 
 234   0.0000       1.427584        38.8465 
 235   0.0000       1.444112        39.2963 
 236   0.0000       1.449409        39.4404 
 237   0.0000       1.449601        39.4456 
 238   0.0000       1.460518        39.7427 
 239   0.0000       1.460537        39.7432 
 240   0.0000       1.481916        40.3250 
 241   0.0000       1.509893        41.0863 
 242   0.0000       1.521864        41.4120 
 243   0.0000       1.521895        41.4129 
 244   0.0000       1.527542        41.5665 
 245   0.0000       1.527798        41.5735 
 246   0.0000       1.537145        41.8278 
 247   0.0000       1.546401        42.0797 
 248   0.0000       1.546424        42.0803 
 249   0.0000       1.563085        42.5337 
 250   0.0000       1.618446        44.0402 
 251   0.0000       1.624981        44.2180 
 252   0.0000       1.625255        44.2254 
 253   0.0000       1.653395        44.9912 
 254   0.0000       1.653422        44.9919 
 255   0.0000       1.674239        45.5584 
 256   0.0000       1.676134        45.6099 
 257   0.0000       1.676823        45.6287 
 258   0.0000       1.699257        46.2391 
 259   0.0000       1.699278        46.2397 
 260   0.0000       1.738595        47.3096 
 261   0.0000       1.741827        47.3975 
 262   0.0000       1.766646        48.0729 
 263   0.0000       1.766713        48.0747 
 264   0.0000       1.788637        48.6713 
 265   0.0000       1.788934        48.6794 
 266   0.0000       1.797346        48.9083 
 267   0.0000       1.813183        49.3392 
 268   0.0000       1.849637        50.3312 
 269   0.0000       1.849829        50.3364 
 270   0.0000       1.886510        51.3345 
 271   0.0000       1.886683        51.3392 
 272   0.0000       1.898200        51.6526 
 273   0.0000       1.902336        51.7652 
 274   0.0000       1.966404        53.5086 
 275   0.0000       1.972593        53.6770 
 276   0.0000       1.972627        53.6779 
 277   0.0000       2.005383        54.5692 
 278   0.0000       2.062531        56.1243 
 279   0.0000       2.062652        56.1276 
 280   0.0000       2.070281        56.3352 
 281   0.0000       2.070718        56.3471 
 282   0.0000       2.095801        57.0296 
 283   0.0000       2.169814        59.0436 
 284   0.0000       2.174300        59.1657 
 285   0.0000       2.174391        59.1682 
 286   0.0000       2.255844        61.3846 
 287   0.0000       2.256458        61.4013 
 288   0.0000       2.291325        62.3501 
 289   0.0000       2.291576        62.3570 
 290   0.0000       2.320613        63.1471 
 291   0.0000       2.325498        63.2800 
 292   0.0000       2.342125        63.7325 
 293   0.0000       2.342183        63.7340 
 294   0.0000       2.376826        64.6767 
 295   0.0000       2.377092        64.6840 
 296   0.0000       2.407166        65.5023 
 297   0.0000       2.425552        66.0026 
 298   0.0000       2.486806        67.6694 
 299   0.0000       2.487170        67.6793 
 300   0.0000       2.540075        69.1189 
 301   0.0000       2.616482        71.1981 
 302   0.0000       2.616510        71.1989 
 303   0.0000       2.628292        71.5195 
 304   0.0000       2.662477        72.4497 
 305   0.0000       2.662796        72.4584 
 306   0.0000       2.724585        74.1397 
 307   0.0000       2.763136        75.1887 
 308   0.0000       2.763750        75.2055 
 309   0.0000       2.863232        77.9125 
 310   0.0000       2.863402        77.9171 
 311   0.0000       2.912950        79.2654 
 312   0.0000       2.938557        79.9622 
 313   0.0000       2.958822        80.5137 
 314   0.0000       2.958978        80.5179 
 315   0.0000       3.280497        89.2669 
 316   0.0000       3.379078        91.9494 
 317   0.0000       3.379156        91.9515 
 318   0.0000       3.445362        93.7531 
 319   0.0000       3.886321       105.7522 
 320   0.0000       3.886617       105.7602 
 321   0.0000      21.124563       574.8286 
 322   0.0000      21.172607       576.1359 
 323   0.0000      21.172740       576.1395 
 324   0.0000      21.357331       581.1625 
 325   0.0000      21.357449       581.1657 
 326   0.0000      21.411820       582.6452 
 327   0.0000      31.026481       844.2735 
 328   0.0000      31.096450       846.1774 
 329   0.0000      31.096883       846.1892 
 330   0.0000      31.096958       846.1913 
 331   0.0000      31.223648       849.6387 
 332   0.0000      31.223649       849.6387 

                    ********************************
                    * MULLIKEN POPULATION ANALYSIS *
                    ********************************

-----------------------
MULLIKEN ATOMIC CHARGES
-----------------------
   0 Co:    0.603729
   1 N :   -0.618181
   2 N :   -0.618181
   3 N :   -0.611959
   4 N :   -0.614543
   5 N :   -0.611959
   6 N :   -0.614543
   7 C :   -0.331153
   8 H :    0.394523
   9 C :   -0.332998
  10 H :    0.260902
  11 H :    0.301580
  12 H :    0.301849
  13 H :    0.260809
  14 H :    0.393321
  15 C :   -0.325995
  16 H :    0.392972
  17 C :   -0.325995
  18 H :    0.258668
  19 H :    0.300303
  20 H :    0.300303
  21 H :    0.258668
  22 H :    0.392972
  23 C :   -0.332998
  24 H :    0.393321
  25 C :   -0.331153
  26 H :    0.260809
  27 H :    0.301849
  28 H :    0.394523
  29 H :    0.301580
  30 H :    0.260902
  31 H :    0.390002
  32 H :    0.389440
  33 H :    0.388596
  34 H :    0.388596
  35 H :    0.390002
  36 H :    0.389440
Sum of atomic charges:    3.0000000

--------------------------------
MULLIKEN REDUCED ORBITAL CHARGES
--------------------------------
  0 Cos       :     6.473714  s :     6.473714
      pz      :     4.119719  p :    12.430695
      px      :     4.155954
      py      :     4.155022
      dz2     :     1.963642  d :     7.491862
      dxz     :     1.208439
      dyz     :     1.208287
      dx2y2   :     1.555473
      dxy     :     1.556022
  1 N s       :     3.533863  s :     3.533863
      pz      :     1.338584  p :     4.048951
      px      :     1.308628
      py      :     1.401739
      dz2     :     0.008151  d :     0.035367
      dxz     :     0.009550
      dyz     :     0.004237
      dx2y2   :     0.005277
      dxy     :     0.008152
  2 N s       :     3.533863  s :     3.533863
      pz      :     1.338584  p :     4.048951
      px      :     1.308628
      py      :     1.401739
      dz2     :     0.008151  d :     0.035367
      dxz     :     0.009550
      dyz     :     0.004237
      dx2y2   :     0.005277
      dxy     :     0.008152
  3 N s       :     3.531430  s :     3.531430
      pz      :     1.335857  p :     4.045165
      px      :     1.391410
      py      :     1.317898
      dz2     :     0.008154  d :     0.035364
      dxz     :     0.006686
      dyz     :     0.007098
      dx2y2   :     0.004175
      dxy     :     0.009252
  4 N s       :     3.533141  s :     3.533141
      pz      :     1.337311  p :     4.046051
      px      :     1.364259
      py      :     1.344481
      dz2     :     0.008151  d :     0.035351
      dxz     :     0.004445
      dyz     :     0.009333
      dx2y2   :     0.010685
      dxy     :     0.002738
  5 N s       :     3.531430  s :     3.531430
      pz      :     1.335857  p :     4.045165
      px      :     1.391410
      py      :     1.317898
      dz2     :     0.008154  d :     0.035364
      dxz     :     0.006686
      dyz     :     0.007098
      dx2y2   :     0.004175
      dxy     :     0.009252
  6 N s       :     3.533141  s :     3.533141
      pz      :     1.337311  p :     4.046051
      px      :     1.364259
      py      :     1.344481
      dz2     :     0.008151  d :     0.035351
      dxz     :     0.004445
      dyz     :     0.009333
      dx2y2   :     0.010685
      dxy     :     0.002738
  7 C s       :     3.333077  s :     3.333077
      pz      :     1.054364  p :     2.949614
      px      :     0.993798
      py      :     0.901452
      dz2     :     0.003874  d :     0.048463
      dxz     :     0.013037
      dyz     :     0.013138
      dx2y2   :     0.006126
      dxy     :     0.012288
  8 H s       :     0.605477  s :     0.605477
  9 C s       :     3.333756  s :     3.333756
      pz      :     1.054450  p :     2.950775
      px      :     0.951647
      py      :     0.944678
      dz2     :     0.003877  d :     0.048467
      dxz     :     0.012709
      dyz     :     0.013464
      dx2y2   :     0.006786
      dxy     :     0.011630
 10 H s       :     0.739098  s :     0.739098
 11 H s       :     0.698420  s :     0.698420
 12 H s       :     0.698151  s :     0.698151
 13 H s       :     0.739191  s :     0.739191
 14 H s       :     0.606679  s :     0.606679
 15 C s       :     3.329063  s :     3.329063
      pz      :     1.053385  p :     2.948476
      px      :     0.896968
      py      :     0.998123
      dz2     :     0.003873  d :     0.048456
      dxz     :     0.013513
      dyz     :     0.012659
      dx2y2   :     0.014707
      dxy     :     0.003704
 16 H s       :     0.607028  s :     0.607028
 17 C s       :     3.329063  s :     3.329063
      pz      :     1.053385  p :     2.948475
      px      :     0.896968
      py      :     0.998123
      dz2     :     0.003873  d :     0.048456
      dxz     :     0.013513
      dyz     :     0.012659
      dx2y2   :     0.014707
      dxy     :     0.003704
 18 H s       :     0.741332  s :     0.741332
 19 H s       :     0.699697  s :     0.699697
 20 H s       :     0.699697  s :     0.699697
 21 H s       :     0.741332  s :     0.741332
 22 H s       :     0.607028  s :     0.607028
 23 C s       :     3.333756  s :     3.333756
      pz      :     1.054450  p :     2.950775
      px      :     0.951647
      py      :     0.944678
      dz2     :     0.003877  d :     0.048467
      dxz     :     0.012709
      dyz     :     0.013464
      dx2y2   :     0.006786
      dxy     :     0.011630
 24 H s       :     0.606679  s :     0.606679
 25 C s       :     3.333077  s :     3.333077
      pz      :     1.054364  p :     2.949614
[...]
     58       0.000319  -0.000289  -0.000661
     59      -0.000464  -0.002396  -0.002140
     60       0.000661   0.001491  -0.001731
     61       0.000319  -0.000290   0.000661
     62      -0.000463  -0.002398   0.002138
     63       0.000044  -0.001825   0.001782
     64      -0.003538  -0.010613   0.007352
     65      -0.003058  -0.007345   0.006231
     66       0.026163   0.069919  -0.053120
     67      -0.178314  -0.467150   0.354120
     68       0.049952   0.129340  -0.097784
     69      -0.000212   0.000370  -0.000092
     70      -0.000128   0.000170  -0.000040
     71      -0.000144  -0.000235  -0.000083
     72      -0.002796  -0.105620  -0.032280
     73      -0.002592  -0.083703  -0.025526
     74      -0.000030  -0.037210  -0.011752
     75       0.000905  -0.000451   0.000738
     76       0.000506  -0.000364   0.000517
     77      -0.000732   0.000426  -0.000684
     78      -0.000528  -0.002531  -0.001220
     79      -0.000128  -0.000576  -0.000654
     80      -0.000441   0.002362   0.000347
     81      -0.000285   0.000035   0.000028
     82       0.000639  -0.000760   0.000161
     83       0.000094   0.000756   0.000028
     84      -0.453415   0.165610  -0.349952
     85      -0.177285   0.064011  -0.136340
     86      -0.134046   0.047399  -0.103002
     87      -0.001128   0.000782  -0.001221
     88       0.001917  -0.000301   0.000997
     89       0.002185  -0.001412   0.002028
     90      -0.008285   0.002708  -0.006195
     91      -0.006153   0.002961  -0.005516
     92       0.008437  -0.002935   0.006149
     93       0.201174  -0.071052  -0.154644
     94      -0.074618   0.026565   0.057459
     95       0.367252  -0.131334  -0.282330
     96      -0.000334   0.047671  -0.013438
     97       0.000122  -0.039567   0.010861
     98       0.000930   0.105999  -0.029021
     99       0.013444   0.032621  -0.025170
    100      -0.079338  -0.202025   0.154501
    101      -0.138205  -0.351603   0.269163
    102      -0.013455  -0.032605  -0.025192
    103      -0.079404  -0.201922  -0.154637
    104      -0.138320  -0.351423  -0.269400
    105      -0.201133   0.071161  -0.154585
    106      -0.074603   0.026605  -0.057437
    107       0.367176  -0.131532   0.282220
    108       0.000351  -0.047655  -0.013466
    109       0.000136  -0.039554  -0.010884
    110       0.000893   0.105964   0.029085


-----------
IR SPECTRUM
-----------

 Mode    freq (cm**-1)   T**2         TX         TY         TZ
-------------------------------------------------------------------
   6:        96.34    0.571856  ( -0.756212  -0.000007   0.000000)
   7:        99.00    0.528001  ( -0.000006   0.726626  -0.004098)
   8:       141.20    0.015081  ( -0.000005  -0.070494  -0.100557)
   9:       150.05    0.130681  ( -0.000001  -0.361350  -0.010342)
  10:       151.20    0.117720  ( -0.343103  -0.000000  -0.000000)
  11:       191.94    0.003213  ( -0.056684  -0.000002  -0.000001)
  12:       241.49    4.189369  (  2.046795  -0.000036  -0.000002)
  13:       242.14    4.234499  ( -0.000035  -2.055834  -0.089693)
  14:       248.72    5.938034  ( -0.000004  -0.058499   2.436106)
  15:       250.17    0.007623  ( -0.087310   0.000007  -0.000061)
  16:       307.41    0.010560  ( -0.102762  -0.000012   0.000001)
  17:       311.40    0.215968  (  0.000002   0.464596   0.010861)
  18:       311.89    0.169008  ( -0.411106   0.000002  -0.000002)
  19:       333.62    8.940623  (  0.000092   2.990083   0.004914)
  20:       334.08    9.296134  ( -3.048956   0.000089   0.000001)
  21:       397.79    1.481450  ( -0.000010  -1.216628  -0.035574)
  22:       398.44    1.525090  (  1.234945  -0.000012  -0.000001)
  23:       408.48    0.881149  (  0.000004  -0.056470   0.936996)
  24:       445.98    3.192390  ( -0.000309   1.786666  -0.014683)
  25:       446.00    3.076025  ( -1.753860  -0.000318   0.000002)
  26:       470.81    0.000044  (  0.006646  -0.000003  -0.000004)
  27:       543.51    3.285815  (  1.812682   0.000012  -0.000001)
  28:       545.49    3.274066  ( -0.000014   1.808542  -0.056941)
  29:       580.33    1.660323  ( -0.000001   0.109755   1.283852)
  30:       679.59    2.840600  ( -1.685408   0.000044   0.000003)
  31:       680.60    2.913806  ( -0.000045  -1.704902  -0.084348)
  32:       688.53    1.568404  ( -0.000001  -0.072986   1.250231)
  33:       704.08    0.014585  ( -0.120767  -0.000005  -0.000000)
  34:       766.30   15.753199  (  0.000070   3.968977  -0.020404)
  35:       767.87   15.618225  ( -3.951990   0.000073  -0.000002)
  36:       862.50    4.858139  (  2.204119   0.000007   0.000001)
  37:       862.75    4.624173  (  0.000013  -2.150386   0.003670)
  38:       873.47    4.560588  (  2.135553  -0.000051   0.000003)
  39:       873.73    4.690249  ( -0.000056  -2.165466   0.031747)
  40:       875.24    0.088727  (  0.000012  -0.157402  -0.252886)
  41:       876.26    0.019487  (  0.139595   0.000007   0.000001)
  42:       972.64   15.823697  (  0.000007   0.029942  -3.977788)
  43:       973.42    0.132593  ( -0.364133  -0.000024  -0.000031)
  44:       973.48    0.116125  ( -0.000016   0.340373  -0.016454)
  45:       998.12    8.981689  ( -0.000171   2.996911  -0.014544)
  46:       998.63    8.395986  ( -2.897583  -0.000190  -0.000002)
  47:      1005.41    0.019508  ( -0.139672   0.000018  -0.000002)
  48:      1042.02   54.194627  (  0.000354  -7.361694  -0.009708)
  49:      1042.33   54.130684  (  7.357356   0.000351  -0.000001)
  50:      1045.32    0.433499  (  0.658407  -0.000036  -0.000002)
  51:      1117.35    1.994921  (  0.000078   1.412219  -0.023648)
  52:      1117.48    2.001903  ( -1.414886   0.000076  -0.000002)
  53:      1129.93    0.191394  (  0.000022   0.006485  -0.437438)
  54:      1162.84   40.419387  (  6.357624  -0.001537  -0.000006)
  55:      1163.12   40.983927  ( -0.001525  -6.401736  -0.041283)
  56:      1189.14    0.000606  ( -0.024613  -0.000017  -0.000002)
  57:      1216.65    8.330827  (  0.000907   2.885972  -0.044653)
  58:      1216.87    8.739055  ( -2.956189   0.000871  -0.000028)
  59:      1248.24   12.894083  (  0.000011   0.019267  -3.590781)
  60:      1293.42    1.247835  (  1.117066  -0.000317  -0.000010)
  61:      1293.48    1.149765  ( -0.000334  -1.071605  -0.037786)
  62:      1308.92    0.003643  (  0.060354  -0.000003   0.000000)
  63:      1320.36   11.430977  (  3.380973  -0.000047  -0.000003)
  64:      1320.85   11.294880  ( -0.000047  -3.360718  -0.021388)
  65:      1339.39   20.597464  ( -0.000006  -4.538436  -0.007902)
  66:      1339.79   20.572654  (  4.535709   0.000006  -0.000001)
  67:      1344.64    0.142680  (  0.000011  -0.264565   0.269602)
  68:      1348.04    0.001243  (  0.035260   0.000004   0.000001)
  69:      1397.09    0.317750  (  0.000002  -0.563088  -0.026110)
  70:      1397.29    0.289487  ( -0.538040   0.000003   0.000004)
  71:      1405.02   10.073356  (  0.000003  -0.011705  -3.173833)
  72:      1436.56    2.292177  (  1.513994  -0.000093   0.000000)
  73:      1436.76    2.119302  ( -0.000095  -1.455709   0.014647)
  74:      1441.41    0.005982  ( -0.077342  -0.000001   0.000000)
  75:      1505.73   51.026677  (  7.143296   0.000113  -0.000005)
  76:      1505.99   31.587839  (  0.000129  -5.615057   0.242842)
  77:      1506.77    0.000004  ( -0.002061  -0.000098  -0.000001)
  78:      1507.25   20.175395  ( -0.000004   4.487654   0.190678)
  79:      1508.10    4.456376  ( -0.000040  -2.108640  -0.100075)
  80:      1509.18    5.579462  (  2.362088  -0.000088  -0.000007)
  81:      1674.47  217.502844  (  0.000003  -0.015991  14.747969)
  82:      1687.67    6.093124  ( -2.468425  -0.000011   0.000015)
  83:      1688.37    5.888080  (  0.000004  -2.414470  -0.241689)
  84:      1691.42    0.141560  (  0.376244  -0.000011  -0.000014)
  85:      1699.45    2.888228  (  0.000004   1.669771  -0.316374)
  86:      1700.20    2.335263  (  1.528157  -0.000009  -0.000002)
  87:      3037.68    1.879551  ( -1.370967   0.000066   0.000005)
  88:      3037.85    7.173811  ( -0.000036  -2.677970   0.047843)
  89:      3039.03    5.209394  ( -2.282410   0.000014   0.000024)
  90:      3042.93    1.835290  (  1.354729   0.000027  -0.000118)
  91:      3043.18   12.567715  (  0.000033  -1.025806   3.393440)
  92:      3044.08   17.411225  (  0.000026   0.811203   4.093064)
  93:      3083.02   13.399673  ( -0.000139   3.659938   0.067306)
  94:      3083.21   10.978309  (  3.313353   0.000169   0.000011)
  95:      3083.74    3.008685  (  1.734556  -0.000010   0.000011)
  96:      3094.77    3.011125  ( -0.000229  -1.589413  -0.696340)
  97:      3094.88    8.036075  (  2.834797  -0.000130  -0.000056)
  98:      3095.60    6.284232  (  0.000019  -2.470466   0.425477)
  99:      3403.67  104.066116  (  0.000272   0.035367  10.201219)
 100:      3404.38   26.211351  ( -5.119702   0.000809   0.000780)
 101:      3404.54   22.872224  ( -0.000951  -4.659041  -1.079613)
 102:      3405.25    0.271051  (  0.520626   0.000015  -0.000240)
 103:      3405.31   10.768372  (  0.000049   2.596860  -2.006163)
 104:      3405.49    2.341010  (  1.530036  -0.000299   0.000242)
 105:      3461.78    9.204014  ( -3.033812  -0.000387   0.000388)
 106:      3462.40   13.919584  ( -0.000063   2.344830  -2.901957)
 107:      3462.89   20.219583  (  4.496619   0.000649   0.000003)
 108:      3463.01   19.098212  (  0.000646  -4.159313   1.341017)
 109:      3463.61   37.219933  (  0.001886  -5.708440  -2.152589)
 110:      3463.68   26.591082  ( -5.156654  -0.001827  -0.000808)

The first frequency considered to be a vibration is 6
The total number of vibrations considered is 105


--------------------------
THERMOCHEMISTRY AT 298.15K
--------------------------

Temperature         ... 298.15 K
Pressure            ... 1.00 atm
Total Mass          ... 239.23 AMU

Throughout the following assumptions are being made:
  (1) The electronic state is orbitally nondegenerate
  (2) There are no thermally accessible electronically excited states
  (3) Hindered rotations indicated by low frequency modes are not
      treated as such but are treated as vibrations and this may
      cause some error
  (4) All equations used are the standard statistical mechanics
      equations for an ideal gas
  (5) All vibrations are strictly harmonic

freq.      96.34  E(vib)   ...       0.47 
freq.      99.00  E(vib)   ...       0.46 
freq.     141.20  E(vib)   ...       0.41 
freq.     150.05  E(vib)   ...       0.40 
freq.     151.20  E(vib)   ...       0.40 
freq.     191.94  E(vib)   ...       0.36 
freq.     241.49  E(vib)   ...       0.31 
freq.     242.14  E(vib)   ...       0.31 
freq.     248.72  E(vib)   ...       0.31 
freq.     250.17  E(vib)   ...       0.31 
freq.     307.41  E(vib)   ...       0.26 
freq.     311.40  E(vib)   ...       0.25 
freq.     311.89  E(vib)   ...       0.25 
freq.     333.62  E(vib)   ...       0.24 
freq.     334.08  E(vib)   ...       0.24 
freq.     397.79  E(vib)   ...       0.20 
freq.     398.44  E(vib)   ...       0.20 
freq.     408.48  E(vib)   ...       0.19 
freq.     445.98  E(vib)   ...       0.17 
freq.     446.00  E(vib)   ...       0.17 
freq.     470.81  E(vib)   ...       0.15 
freq.     543.51  E(vib)   ...       0.12 
freq.     545.49  E(vib)   ...       0.12 
freq.     580.33  E(vib)   ...       0.11 
freq.     679.59  E(vib)   ...       0.08 
freq.     680.60  E(vib)   ...       0.08 
freq.     688.53  E(vib)   ...       0.07 
freq.     704.08  E(vib)   ...       0.07 
freq.     766.30  E(vib)   ...       0.06 
freq.     767.87  E(vib)   ...       0.06 
freq.     862.50  E(vib)   ...       0.04 
freq.     862.75  E(vib)   ...       0.04 
freq.     873.47  E(vib)   ...       0.04 
freq.     873.73  E(vib)   ...       0.04 
freq.     875.24  E(vib)   ...       0.04 
freq.     876.26  E(vib)   ...       0.04 
freq.     972.64  E(vib)   ...       0.03 
freq.     973.42  E(vib)   ...       0.03 
freq.     973.48  E(vib)   ...       0.03 
freq.     998.12  E(vib)   ...       0.02 
freq.     998.63  E(vib)   ...       0.02 
freq.    1005.41  E(vib)   ...       0.02 
freq.    1042.02  E(vib)   ...       0.02 
freq.    1042.33  E(vib)   ...       0.02 
freq.    1045.32  E(vib)   ...       0.02 
freq.    1117.35  E(vib)   ...       0.01 
freq.    1117.48  E(vib)   ...       0.01 
freq.    1129.93  E(vib)   ...       0.01 
freq.    1162.84  E(vib)   ...       0.01 
freq.    1163.12  E(vib)   ...       0.01 
freq.    1189.14  E(vib)   ...       0.01 
freq.    1216.65  E(vib)   ...       0.01 
freq.    1216.87  E(vib)   ...       0.01 
freq.    1248.24  E(vib)   ...       0.01 
freq.    1293.42  E(vib)   ...       0.01 
freq.    1293.48  E(vib)   ...       0.01 
freq.    1308.92  E(vib)   ...       0.01 
freq.    1320.36  E(vib)   ...       0.01 
freq.    1320.85  E(vib)   ...       0.01 
freq.    1339.39  E(vib)   ...       0.01 
freq.    1339.79  E(vib)   ...       0.01 
freq.    1344.64  E(vib)   ...       0.01 
freq.    1348.04  E(vib)   ...       0.01 
freq.    1397.09  E(vib)   ...       0.00 
freq.    1397.29  E(vib)   ...       0.00 
freq.    1405.02  E(vib)   ...       0.00 
freq.    1436.56  E(vib)   ...       0.00 
freq.    1436.76  E(vib)   ...       0.00 
freq.    1441.41  E(vib)   ...       0.00 
freq.    1505.73  E(vib)   ...       0.00 
freq.    1505.99  E(vib)   ...       0.00 
freq.    1506.77  E(vib)   ...       0.00 
freq.    1507.25  E(vib)   ...       0.00 
freq.    1508.10  E(vib)   ...       0.00 
freq.    1509.18  E(vib)   ...       0.00 
freq.    1674.47  E(vib)   ...       0.00 
freq.    1687.67  E(vib)   ...       0.00 
freq.    1688.37  E(vib)   ...       0.00 
freq.    1691.42  E(vib)   ...       0.00 
freq.    1699.45  E(vib)   ...       0.00 
freq.    1700.20  E(vib)   ...       0.00 
freq.    3037.68  E(vib)   ...       0.00 
freq.    3037.85  E(vib)   ...       0.00 
freq.    3039.03  E(vib)   ...       0.00 
freq.    3042.93  E(vib)   ...       0.00 
freq.    3043.18  E(vib)   ...       0.00 
freq.    3044.08  E(vib)   ...       0.00 
freq.    3083.02  E(vib)   ...       0.00 
freq.    3083.21  E(vib)   ...       0.00 
freq.    3083.74  E(vib)   ...       0.00 
freq.    3094.77  E(vib)   ...       0.00 
freq.    3094.88  E(vib)   ...       0.00 
freq.    3095.60  E(vib)   ...       0.00 
freq.    3403.67  E(vib)   ...       0.00 
freq.    3404.38  E(vib)   ...       0.00 
freq.    3404.54  E(vib)   ...       0.00 
freq.    3405.25  E(vib)   ...       0.00 
freq.    3405.31  E(vib)   ...       0.00 
freq.    3405.49  E(vib)   ...       0.00 
freq.    3461.78  E(vib)   ...       0.00 
freq.    3462.40  E(vib)   ...       0.00 
freq.    3462.89  E(vib)   ...       0.00 
freq.    3463.01  E(vib)   ...       0.00 
freq.    3463.61  E(vib)   ...       0.00 
freq.    3463.68  E(vib)   ...       0.00 

------------
INNER ENERGY
------------

The inner energy is: U= E(el) + E(ZPE) + E(vib) + E(rot) + E(trans)
    E(el)   - is the total energy from the electronic structure calculation
              = E(kin-el) + E(nuc-el) + E(el-el) + E(nuc-nuc)
    E(ZPE)  - the the zero temperature vibrational energy from the frequency calculation
    E(vib)  - the the finite temperature correction to E(ZPE) due to population
              of excited vibrational states
    E(rot)  - is the rotational thermal energy
    E(trans)- is the translational thermal energy

Summary of contributions to the inner energy U:
Electronic energy                ...  -1953.61704600 Eh
Zero point energy                ...      0.35166932 Eh     220.68 kcal/mol
Thermal vibrational correction   ...      0.01189075 Eh       7.46 kcal/mol
Thermal rotational correction    ...      0.00141627 Eh       0.89 kcal/mol
Thermal translational correction ...      0.00141627 Eh       0.89 kcal/mol
-----------------------------------------------------------------------
Total thermal energy                  -1953.25065339 Eh


Summary of corrections to the electronic energy:
(perhaps to be used in another calculation)
Total thermal correction                  0.01472329 Eh       9.24 kcal/mol
Non-thermal (ZPE) correction              0.35166932 Eh     220.68 kcal/mol
-----------------------------------------------------------------------
Total correction                          0.36639261 Eh     229.91 kcal/mol


--------
ENTHALPY
--------

The enthalpy is H = U + kB*T
                kB is Boltzmann's constant
Total free energy                 ...  -1953.25065339 Eh 
Thermal Enthalpy correction       ...      0.00094421 Eh       0.59 kcal/mol
-----------------------------------------------------------------------
Total Enthalpy                    ...  -1953.24970918 Eh


Note: Rotational entropy computed according to Herzberg 
Infrared and Raman Spectra, Chapter V,1, Van Nostrand Reinhold, 1945 
Point Group:  C2, Symmetry Number:   2  
Rotational constants in cm-1:     0.025468     0.025432     0.016548 

Vibrational entropy computed according to the QRRHO of S. Grimme
Chem.Eur.J. 2012 18 9955


-------
ENTROPY
-------

The entropy contributions are T*S = T*(S(el)+S(vib)+S(rot)+S(trans))
     S(el)   - electronic entropy
     S(vib)  - vibrational entropy
     S(rot)  - rotational entropy
     S(trans)- translational entropy
The entropies will be listed as mutliplied by the temperature to get
units of energy

Electronic entropy                ...      0.00000000 Eh      0.00 kcal/mol
Vibrational entropy               ...      0.01967357 Eh     12.35 kcal/mol
Rotational entropy                ...      0.01425875 Eh      8.95 kcal/mol
Translational entropy             ...      0.02010659 Eh     12.62 kcal/mol
-----------------------------------------------------------------------
Final entropy term                ...      0.05403892 Eh     33.91 kcal/mol

In case the symmetry of your molecule has not been determined correctly
or in case you have a reason to use a different symmetry number we print 
out the resulting rotational entropy values for sn=1,12 :
 --------------------------------------------------------
|  sn= 1 | S(rot)=       0.01491321 Eh      9.36 kcal/mol|
|  sn= 2 | S(rot)=       0.01425875 Eh      8.95 kcal/mol|
|  sn= 3 | S(rot)=       0.01387592 Eh      8.71 kcal/mol|
|  sn= 4 | S(rot)=       0.01360430 Eh      8.54 kcal/mol|
|  sn= 5 | S(rot)=       0.01339361 Eh      8.40 kcal/mol|
|  sn= 6 | S(rot)=       0.01322146 Eh      8.30 kcal/mol|
|  sn= 7 | S(rot)=       0.01307592 Eh      8.21 kcal/mol|
|  sn= 8 | S(rot)=       0.01294984 Eh      8.13 kcal/mol|
|  sn= 9 | S(rot)=       0.01283863 Eh      8.06 kcal/mol|
|  sn=10 | S(rot)=       0.01273915 Eh      7.99 kcal/mol|
|  sn=11 | S(rot)=       0.01264916 Eh      7.94 kcal/mol|
|  sn=12 | S(rot)=       0.01256701 Eh      7.89 kcal/mol|
 --------------------------------------------------------


-------------------
GIBBS FREE ENERGY
-------------------

The Gibbs free energy is G = H - T*S

Total enthalpy                    ...  -1953.24970918 Eh 
Total entropy correction          ...     -0.05403892 Eh    -33.91 kcal/mol
-----------------------------------------------------------------------
Final Gibbs free energy         ...  -1953.30374809 Eh

For completeness - the Gibbs free energy minus the electronic energy
G-E(el)                           ...      0.31329790 Eh    196.60 kcal/mol


Timings for individual modules:

Sum of individual times         ...     1106.740 sec (=  18.446 min)
GTO integral calculation        ...       11.308 sec (=   0.188 min)   1.0 %
SCF iterations                  ...      240.846 sec (=   4.014 min)  21.8 %
SCF Gradient evaluation         ...       84.419 sec (=   1.407 min)   7.6 %
Geometry relaxation             ...        4.370 sec (=   0.073 min)   0.4 %
Analytical frequency calculation...      765.797 sec (=  12.763 min)  69.2 %
                             ****ORCA TERMINATED NORMALLY****
TOTAL RUN TIME: 0 days 0 hours 18 minutes 32 seconds 515 msec
