
                                 *****************
                                 * O   R   C   A *
                                 *****************

           --- An Ab Initio, DFT and Semiempirical electronic structure package ---

                  #######################################################
                  #                        -***-                        #
                  #          Department of theory and spectroscopy      #
                  #               Directorship: Frank Neese             #
                  #        Max Planck Institute fuer Kohlenforschung    #
                  #                Kaiser Wilhelm Platz 1               #
                  #                 D-45470 Muelheim/Ruhr               #
                  #                      Germany                        #
                  #                                                     #
                  #                  All rights reserved                #
                  #                        -***-                        #
                  #######################################################


                         Program Version 4.2.1 -  RELEASE  -


 With contributions from (in alphabetic order):
   Daniel Aravena         : Magnetic Suceptibility
   Michael Atanasov       : Ab Initio Ligand Field Theory (pilot matlab implementation)
   Alexander A. Auer      : GIAO ZORA, VPT2
   Ute Becker             : Parallelization
   Giovanni Bistoni       : ED, misc. LED, open-shell LED, HFLD
   Martin Brehm           : Molecular dynamics
   Dmytro Bykov           : SCF Hessian
   Vijay G. Chilkuri      : MRCI spin determinant printing, contributions to CSF-ICE
   Dipayan Datta          : RHF DLPNO-CCSD density
   Achintya Kumar Dutta   : EOM-CC, STEOM-CC
   Dmitry Ganyushin       : Spin-Orbit,Spin-Spin,Magnetic field MRCI
   Miquel Garcia          : C-PCM Hessian, Gaussian charge scheme
   Yang Guo               : DLPNO-NEVPT2, CIM, IAO-localization
   Andreas Hansen         : Spin unrestricted coupled pair/coupled cluster methods
   Benjamin Helmich-Paris : CASSCF linear response (MC-RPA)
   Lee Huntington         : MR-EOM, pCC
   Robert Izsak           : Overlap fitted RIJCOSX, COSX-SCS-MP3, EOM
   Christian Kollmar      : KDIIS, OOCD, Brueckner-CCSD(T), CCSD density
   Simone Kossmann        : Meta GGA functionals, TD-DFT gradient, OOMP2, MP2 Hessian
   Martin Krupicka        : AUTO-CI
   Lucas Lang             : DCDCAS
   Dagmar Lenk            : GEPOL surface, SMD
   Dimitrios Liakos       : Extrapolation schemes; Compound Job, initial MDCI parallelization
   Dimitrios Manganas     : Further ROCIS development; embedding schemes
   Dimitrios Pantazis     : SARC Basis sets
   Taras Petrenko         : DFT Hessian,TD-DFT gradient, ASA, ECA, R-Raman, ABS, FL, XAS/XES, NRVS
   Peter Pinski           : DLPNO-MP2, DLPNO-MP2 Gradient
   Christoph Reimann      : Effective Core Potentials
   Marius Retegan         : Local ZFS, SOC
   Christoph Riplinger    : Optimizer, TS searches, QM/MM, DLPNO-CCSD(T), (RO)-DLPNO pert. Triples
   Tobias Risthaus        : Range-separated hybrids, TD-DFT gradient, RPA, STAB
   Michael Roemelt        : Original ROCIS implementation
   Masaaki Saitow         : Open-shell DLPNO-CCSD energy and density
   Barbara Sandhoefer     : DKH picture change effects
   Avijit Sen             : IP-ROCIS
   Kantharuban Sivalingam : CASSCF convergence, NEVPT2, FIC-MRCI
   Bernardo de Souza      : ESD, SOC TD-DFT
   Georgi Stoychev        : AutoAux, RI-MP2 NMR
   Willem Van den Heuvel  : Paramagnetic NMR
   Boris Wezisla          : Elementary symmetry handling
   Frank Wennmohs         : Technical directorship


 We gratefully acknowledge several colleagues who have allowed us to
 interface, adapt or use parts of their codes:
   Stefan Grimme, W. Hujo, H. Kruse,             : VdW corrections, initial TS optimization,
                  C. Bannwarth                     DFT functionals, gCP, sTDA/sTD-DF
   Ed Valeev, F. Pavosevic, A. Kumar             : LibInt (2-el integral package), F12 methods
   Garnet Chan, S. Sharma, J. Yang, R. Olivares  : DMRG
   Ulf Ekstrom                                   : XCFun DFT Library
   Mihaly Kallay                                 : mrcc  (arbitrary order and MRCC methods)
   Andreas Klamt, Michael Diedenhofen            : otool_cosmo (COSMO solvation model)
   Jiri Pittner, Ondrej Demel                    : Mk-CCSD
   Frank Weinhold                                : gennbo (NPA and NBO analysis)
   Christopher J. Cramer and Donald G. Truhlar   : smd solvation model
   Lars Goerigk                                  : TD-DFT with DH, B97 family of functionals
   V. Asgeirsson, H. Jonsson                     : NEB implementation
   FAccTs GmbH                                   : IRC, NEB, NEB-TS, Multilevel, MM, QM/MM, CI optimization
   S Lehtola, MJT Oliveira, MAL Marques          : LibXC Library


 Your calculation uses the libint2 library for the computation of 2-el integrals
 For citations please refer to: http://libint.valeyev.net

 Your ORCA version has been built with support for libXC version: 4.2.3
 For citations please refer to: https://tddft.org/programs/libxc/

 This ORCA versions uses:
   CBLAS   interface :  Fast vector & matrix operations
   LAPACKE interface :  Fast linear algebra routines
   SCALAPACK package :  Parallel linear algebra routines


Your calculation utilizes the geometrical counterpoise correction gCP
Please cite in your paper:
H.Kruse, S. Grimme J.Chem.Phys., 136, (2012), 154101 
   

Your calculation utilizes the atom-pairwise dispersion correction
based on tight binding partial charges (D4)
Cite in your paper:
E.Caldeweyher, C.Bannwarth, S.Grimme, J.Chem.Phys., (2017), 147, 034112.
E.Caldeweyher, S.Ehlert, A.Hansen, H.Neugebauer, S.Grimme, J.Chem.Phys., (2018), in progress.
   

----- Orbital basis set information -----
Your calculation utilizes the basis: def2-SVP
   F. Weigend and R. Ahlrichs, Phys. Chem. Chem. Phys. 7, 3297 (2005).

----- AuxJ basis set information -----
Your calculation utilizes the auxiliary basis: def2/J
   F. Weigend, Phys. Chem. Chem. Phys. 8, 1057 (2006).

================================================================================
                                        WARNINGS
                       Please study these warnings very carefully!
================================================================================


WARNING: Geometry Optimization
  ===> : Switching off AutoStart
         For restart on a previous wavefunction, please use MOREAD

INFO   : the flag for use of LIBINT has been found!

================================================================================
                                       INPUT FILE
================================================================================
NAME = water.inp
|  1> ! revPBE D4 gCP(DFT/TZ) def2-SVP Opt Freq TightOpt TightSCF Grid4 FinalGrid5 LargePrint
|  2> 
|  3> %pal
|  4>  nprocs 8
|  5> end
|  6> 
|  7> *xyz 0 1
|  8> O        0.178164000      0.697853000      0.297922000
|  9> H       -0.451181000      0.337579000      0.951109000
| 10> H        0.144539000      0.023782000     -0.407083000
| 11> *
| 12> 
| 13>                          ****END OF INPUT****
================================================================================

                       *****************************
                       * Geometry Optimization Run *
                       *****************************

Geometry optimization settings:
Update method            Update   .... BFGS
Choice of coordinates    CoordSys .... Z-matrix Internals
Initial Hessian          InHess   .... Almoef's Model

Convergence Tolerances:
Energy Change            TolE     ....  1.0000e-06 Eh
Max. Gradient            TolMAXG  ....  1.0000e-04 Eh/bohr
RMS Gradient             TolRMSG  ....  3.0000e-05 Eh/bohr
Max. Displacement        TolMAXD  ....  1.0000e-03 bohr
RMS Displacement         TolRMSD  ....  6.0000e-04 bohr
Strict Convergence                ....  False
------------------------------------------------------------------------------
                        ORCA OPTIMIZATION COORDINATE SETUP
------------------------------------------------------------------------------

The optimization will be done in new redundant internal coordinates
Making redundant internal coordinates   ...  (new redundants) done
Evaluating the initial hessian          ...  (Almloef) done
Evaluating the coordinates              ...  done
Calculating the B-matrix                .... done
Calculating the G-matrix                .... done
Diagonalizing the G-matrix              .... done
The first mode is                       ....    0
The number of degrees of freedom        ....    3

    -----------------------------------------------------------------
                    Redundant Internal Coordinates


    -----------------------------------------------------------------
         Definition                    Initial Value    Approx d2E/dq
    -----------------------------------------------------------------
      1. B(H   1,O   0)                  0.9760         0.490321   
      2. B(H   2,O   0)                  0.9760         0.490313   
      3. A(H   1,O   0,H   2)          101.9045         0.315729   
    -----------------------------------------------------------------

Number of atoms                         .... 3
Number of degrees of freedom            .... 3

         *************************************************************
         *                GEOMETRY OPTIMIZATION CYCLE   1            *
         *************************************************************
---------------------------------
CARTESIAN COORDINATES (ANGSTROEM)
---------------------------------
  O      0.178164    0.697853    0.297922
  H     -0.451181    0.337579    0.951109
  H      0.144539    0.023782   -0.407083

----------------------------
CARTESIAN COORDINATES (A.U.)
----------------------------
  NO LB      ZA    FRAG     MASS         X           Y           Z
   0 O     8.0000    0    15.999    0.336681    1.318751    0.562991
   1 H     1.0000    0     1.008   -0.852609    0.637932    1.797336
   2 H     1.0000    0     1.008    0.273139    0.044941   -0.769275

--------------------------------
INTERNAL COORDINATES (ANGSTROEM)
--------------------------------
 O      0   0   0     0.000000000000     0.00000000     0.00000000
 H      1   0   0     0.975974252258     0.00000000     0.00000000
 H      1   2   0     0.975978690183   101.90445261     0.00000000

---------------------------
INTERNAL COORDINATES (A.U.)
---------------------------
 O      0   0   0     0.000000000000     0.00000000     0.00000000
 H      1   0   0     1.844324050526     0.00000000     0.00000000
 H      1   2   0     1.844332436989   101.90445261     0.00000000

---------------------
BASIS SET INFORMATION
---------------------
There are 2 groups of distinct atoms

 Group   1 Type O   : 7s4p1d contracted to 3s2p1d pattern {511/31/1}
 Group   2 Type H   : 4s1p contracted to 2s1p pattern {31/1}

Atom   0O    basis set group =>   1
Atom   1H    basis set group =>   2
Atom   2H    basis set group =>   2

-------------------------
BASIS SET IN INPUT FORMAT
-------------------------

 # Basis set for element : H 
 NewGTO H 
 S 3 
   1      13.0107010000      0.0334854848
   2       1.9622572000      0.2347218709
   3       0.4445379600      0.8137702853
 S 1 
   1       0.1219496200      1.0000000000
 P 1 
   1       0.8000000000      1.0000000000
  end;

 # Basis set for element : O 
 NewGTO O 
 S 5 
   1    2266.1767785000     -0.0053893504
   2     340.8701019100     -0.0402347214
   3      77.3631351670     -0.1800818421
   4      21.4796449400     -0.4682885766
   5       6.6589433124     -0.4469261716
 S 1 
   1       0.8097597567      1.0000000000
 S 1 
   1       0.2553077223      1.0000000000
 P 3 
   1      17.7215043170      0.0626302488
   2       3.8635505440      0.3333113849
   3       1.0480920883      0.7414863830
 P 1 
   1       0.2764154441      1.0000000000
 D 1 
   1       1.2000000000      1.0000000000
  end;

---------------------------------
AUXILIARY/J BASIS SET INFORMATION
---------------------------------
There are 2 groups of distinct atoms

 Group   1 Type O   : 12s5p4d2f1g contracted to 6s4p3d1f1g pattern {711111/2111/211/2/1}
 Group   2 Type H   : 5s2p1d contracted to 3s1p1d pattern {311/2/1}

Atom   0O    basis set group =>   1
Atom   1H    basis set group =>   2
Atom   2H    basis set group =>   2

-------------------------------------
AUXILIARY/J BASIS SET IN INPUT FORMAT
-------------------------------------

 # Auxiliary/J basis set for element : H 
 NewAuxJGTO H 
 S 3 
   1      15.6752927000      0.1007184237
   2       3.6063578000      0.3404257499
   3       1.2080016000      0.6491996172
 S 1 
   1       0.4726794000      1.0000000000
 S 1 
   1       0.2018100000      1.0000000000
 P 2 
   1       2.0281365000      0.5596620919
   2       0.5358730000      0.5596620919
 D 1 
   1       2.2165124000      1.0000000000
  end;

 # Auxiliary/J basis set for element : O 
 NewAuxJGTO O 
 S 7 
   1    2876.8216605000      0.0168151159
   2    1004.7443032000      0.0340137548
   3     369.7579954000      0.1194951309
   4     142.9442404000      0.2664627624
   5      57.8366425000      0.4202764046
   6      24.3864983000      0.2765077335
   7      10.6622662000      0.0057008815
 S 1 
   1       4.8070437000     -1.0000000000
 S 1 
   1       2.2210770000      1.0000000000
 S 1 
   1       1.0447795000      1.0000000000
 S 1 
   1       0.4968425000      1.0000000000
 S 1 
   1       0.2371384000      1.0000000000
 P 2 
   1      64.2613382000     -0.2731534179
   2      16.3006076000     -0.8168011598
 P 1 
   1       4.3550542000      1.0000000000
 P 1 
   1       1.2019554000      1.0000000000
 P 1 
   1       0.3354196000      1.0000000000
 D 2 
   1       9.2146611000     -0.4661230638
   2       2.8435251000     -0.6600908911
 D 1 
   1       0.9955759000     -1.0000000000
 D 1 
   1       0.3649441000     -1.0000000000
 F 2 
   1       2.6420115000      0.5931563945
   2       0.7345613000      0.5931563945
 G 1 
   1       1.3931000000     -1.0000000000
  end;



           ************************************************************
           *        Program running with 8 parallel MPI-processes     *
           *              working on a common directory               *
           ************************************************************
------------------------------------------------------------------------------
                           ORCA GTO INTEGRAL CALCULATION
                           -- RI-GTO INTEGRALS CHOSEN --
------------------------------------------------------------------------------

                         BASIS SET STATISTICS AND STARTUP INFO

Gaussian basis set:
 # of primitive gaussian shells          ...   22
 # of primitive gaussian functions       ...   38
 # of contracted shells                  ...   12
 # of contracted basis functions         ...   24
 Highest angular momentum                ...    2
 Maximum contraction depth               ...    5
Auxiliary gaussian basis set:
 # of primitive gaussian shells          ...   40
 # of primitive gaussian functions       ...  102
 # of contracted shells                  ...   25
 # of contracted aux-basis functions     ...   71
 Highest angular momentum                ...    4
 Maximum contraction depth               ...    7
Ratio of auxiliary to basis functions    ...  2.96
Integral package used                  ... LIBINT
 One Electron integrals                  ... done
 Ordering auxiliary basis shells         ... done
 Integral threshhold             Thresh  ...  2.500e-11
 Primitive cut-off               TCut    ...  2.500e-12
 Pre-screening matrix                    ... done
 Shell pair data                         ... 
 Ordering of the shell pairs             ... done (   0.000 sec) 78 of 78 pairs
 Determination of significant pairs      ... done (   0.000 sec)
 Creation of shell pair data             ... done (   0.000 sec)
 Storage of shell pair data              ... done (   0.000 sec)
 Shell pair data done in (   0.000 sec)
 Computing two index integrals           ... done
 Cholesky decomposition of the V-matrix  ... done


Timings:
 Total evaluation time                   ...   0.160 sec (  0.003 min)
 One electron matrix time                ...   0.004 sec (  0.000 min) =  2.7%
 Schwartz matrix evaluation time         ...   0.127 sec (  0.002 min) = 79.7%
 Two index repulsion integral time       ...   0.001 sec (  0.000 min) =  0.7%
 Cholesky decomposition of V             ...   0.006 sec (  0.000 min) =  3.8%
 Three index repulsion integral time     ...   0.000 sec (  0.000 min) =  0.0%



           ************************************************************
           *        Program running with 8 parallel MPI-processes     *
           *              working on a common directory               *
           ************************************************************
-------------------------------------------------------------------------------
                                 ORCA SCF
-------------------------------------------------------------------------------

------------
SCF SETTINGS
------------
Hamiltonian:
 Density Functional     Method          .... DFT(GTOs)
 Exchange Functional    Exchange        .... PBE
   PBE kappa parameter   XKappa         ....  1.245000
   PBE mue parameter    XMuePBE         ....  0.219520
 Correlation Functional Correlation     .... PBE
   PBE beta parameter  CBetaPBE         ....  0.066725
 LDA part of GGA corr.  LDAOpt          .... PW91-LDA
 Gradients option       PostSCFGGA      .... off
   Density functional embedding theory  .... OFF
   NL short-range parameter             ....  3.700000
 RI-approximation to the Coulomb term is turned on
   Number of auxiliary basis functions  .... 71


General Settings:
 Integral files         IntName         .... water
 Hartree-Fock type      HFTyp           .... RHF
 Total Charge           Charge          ....    0
 Multiplicity           Mult            ....    1
 Number of Electrons    NEL             ....   10
 Basis Dimension        Dim             ....   24
 Nuclear Repulsion      ENuc            ....      9.0243235009 Eh

Convergence Acceleration:
 DIIS                   CNVDIIS         .... on
   Start iteration      DIISMaxIt       ....    12
   Startup error        DIISStart       ....  0.200000
   # of expansion vecs  DIISMaxEq       ....     5
   Bias factor          DIISBfac        ....   1.050
   Max. coefficient     DIISMaxC        ....  10.000
 Newton-Raphson         CNVNR           .... off
 SOSCF                  CNVSOSCF        .... on
   Start iteration      SOSCFMaxIt      ....   150
   Startup grad/error   SOSCFStart      ....  0.003300
 Level Shifting         CNVShift        .... on
   Level shift para.    LevelShift      ....    0.2500
   Turn off err/grad.   ShiftErr        ....    0.0010
 Zerner damping         CNVZerner       .... off
 Static damping         CNVDamp         .... on
   Fraction old density DampFac         ....    0.7000
   Max. Damping (<1)    DampMax         ....    0.9800
   Min. Damping (>=0)   DampMin         ....    0.0000
   Turn off err/grad.   DampErr         ....    0.1000
 Fernandez-Rico         CNVRico         .... off

SCF Procedure:
 Maximum # iterations   MaxIter         ....   125
 SCF integral mode      SCFMode         .... Direct
   Integral package                     .... LIBINT
 Reset frequency        DirectResetFreq ....    20
 Integral Threshold     Thresh          ....  2.500e-11 Eh
 Primitive CutOff       TCut            ....  2.500e-12 Eh

Convergence Tolerance:
 Convergence Check Mode ConvCheckMode   .... Total+1el-Energy
 Convergence forced     ConvForced      .... 0
 Energy Change          TolE            ....  1.000e-08 Eh
 1-El. energy change                    ....  1.000e-05 Eh
 Orbital Gradient       TolG            ....  1.000e-05
 Orbital Rotation angle TolX            ....  1.000e-05
 DIIS Error             TolErr          ....  5.000e-07


Diagonalization of the overlap matrix:
Smallest eigenvalue                        ... 3.838e-02
Time for diagonalization                   ...    0.012 sec
Threshold for overlap eigenvalues          ... 1.000e-08
Number of eigenvalues below threshold      ... 0
Time for construction of square roots      ...    0.003 sec
Total time needed                          ...    0.015 sec

-------------------
DFT GRID GENERATION
-------------------

General Integration Accuracy     IntAcc      ...  4.670
Radial Grid Type                 RadialGrid  ... Gauss-Chebyshev
Angular Grid (max. acc.)         AngularGrid ... Lebedev-302
Angular grid pruning method      GridPruning ... 3 (G Style)
Weight generation scheme         WeightScheme... Becke
Basis function cutoff            BFCut       ...    1.0000e-11
Integration weight cutoff        WCut        ...    1.0000e-14
Grids for H and He will be reduced by one unit

# of grid points (after initial pruning)     ...  13000 (   0.0 sec)
# of grid points (after weights+screening)   ...  12900 (   0.0 sec)
nearest neighbour list constructed           ...    0.0 sec
Grid point re-assignment to atoms done       ...    0.0 sec
Grid point division into batches done        ...    0.0 sec
Reduced shell lists constructed in    0.1 sec

Total number of grid points                  ...    12900
Total number of batches                      ...      203
Average number of points per batch           ...       63
Average number of grid points per atom       ...     4300
Average number of shells per batch           ...     8.74 (72.84%)
Average number of basis functions per batch  ...    17.19 (71.60%)
Average number of large shells per batch     ...     7.56 (86.44%)
Average number of large basis fcns per batch ...    14.81 (86.21%)
Maximum spatial batch extension              ...  21.92, 19.40, 16.88 au
Average spatial batch extension              ...   0.76,  0.77,  0.72 au

Time for grid setup =    0.070 sec

------------------------------
INITIAL GUESS: MODEL POTENTIAL
------------------------------
Loading Hartree-Fock densities                     ... done
Calculating cut-offs                               ... done
Setting up the integral package                    ... done
Initializing the effective Hamiltonian             ... done
Starting the Coulomb interaction                   ... done (   0.0 sec)
Reading the grid                                   ... done
Mapping shells                                     ... done
Starting the XC term evaluation                    ... done (   0.0 sec)
  promolecular density results
     # of electrons  =      9.999010245
     EX              =     -8.781784030
     EC              =     -0.315627323
     EX+EC           =     -9.097411353
Transforming the Hamiltonian                       ... done (   0.0 sec)
Diagonalizing the Hamiltonian                      ... done (   0.0 sec)
Back transforming the eigenvectors                 ... done (   0.0 sec)
Now organizing SCF variables                       ... done
                      ------------------
                      INITIAL GUESS DONE (   0.2 sec)
                      ------------------
----------------------
INITIAL GUESS ORBITALS
----------------------
                      0         1         2         3         4         5   
                 -18.96810  -1.03863  -0.57858  -0.47418  -0.39722  -0.01579
                   2.00000   2.00000   2.00000   2.00000   2.00000   0.00000
                  --------  --------  --------  --------  --------  --------
  0O   1s        -0.988804 -0.291577  0.000001  0.097706  0.000001  0.116911
  0O   2s         0.039512 -0.606678 -0.000000  0.206621  0.000001  0.252120
  0O   3s        -0.014538 -0.261239  0.000008  0.288643  0.000002  0.829365
  0O   1pz       -0.000100  0.004654 -0.509149  0.025554 -0.302887 -0.010891
  0O   1px       -0.001286  0.059572  0.223322  0.326927 -0.510273 -0.139425
  0O   1py       -0.002006  0.092941 -0.117632  0.510051  0.342246 -0.217506
  0O   2pz        0.000001 -0.000254 -0.203413  0.013409 -0.195700 -0.012713
  0O   2px        0.000016 -0.003235  0.089218  0.171554 -0.329701 -0.162894
  0O   2py        0.000025 -0.005049 -0.047000  0.267641  0.221128 -0.254132
  0O   1dz2       0.000528 -0.000910  0.001143  0.006343  0.000444 -0.004638
  0O   1dxz      -0.000804  0.002292  0.008151 -0.000201  0.003715  0.002938
  0O   1dyz       0.000496 -0.001522  0.013321 -0.001005  0.004832 -0.001321
  0O   1dx2y2    -0.000187  0.000999 -0.006745  0.004830  0.011317 -0.001443
  0O   1dxy       0.000501 -0.002453 -0.003825 -0.010547  0.004919  0.002819
  1H   1s        -0.002152 -0.179527 -0.290576 -0.192008 -0.000007 -0.192907
  1H   2s         0.002351 -0.001946 -0.049578 -0.033130  0.000004 -0.745549
  1H   1pz        0.002000  0.025578  0.013160  0.025526 -0.011446 -0.009869
  1H   1px       -0.001956 -0.020329 -0.022192 -0.008289 -0.019286  0.006879
  1H   1py       -0.001146 -0.007673 -0.021441  0.010231  0.012935  0.001525
  2H   1s        -0.002152 -0.179525  0.290570 -0.192011 -0.000003 -0.192916
  2H   2s         0.002351 -0.001948  0.049578 -0.033133  0.000003 -0.745433
  2H   1pz       -0.002163 -0.026955  0.015639 -0.025086 -0.011448  0.010252
  2H   1px       -0.000130  0.002712  0.009561  0.013908 -0.019284 -0.001943
  2H   1py       -0.002108 -0.019812  0.028096 -0.001464  0.012935  0.006178
                      6         7         8         9        10        11   
                   0.05127   0.44272   0.50702   0.74661   0.74814   0.85913
                   0.00000   0.00000   0.00000   0.00000   0.00000   0.00000
                  --------  --------  --------  --------  --------  --------
  0O   1s         0.000006  0.000015  0.086250 -0.168250 -0.000583 -0.000016
  0O   2s         0.000015  0.000057  0.341895 -0.787130 -0.002722 -0.000100
  0O   3s         0.000020 -0.000045 -0.481508  0.506338  0.001735  0.000169
  0O   1pz       -0.368794  0.221415 -0.017946 -0.031373  0.411675  0.692358
  0O   1px        0.161752 -0.097136 -0.229460 -0.385281  0.692401 -0.303684
  0O   1py       -0.085218  0.051112 -0.358047 -0.595734 -0.467350  0.159959
  0O   2pz       -0.479410  0.250835  0.005320  0.046282 -0.457679 -1.556859
  0O   2px        0.210267 -0.110036  0.068724  0.573948 -0.769321  0.682843
  0O   2py       -0.110772  0.057942  0.107221  0.889505  0.520415 -0.359726
  0O   1dz2      -0.000751  0.007224 -0.046802  0.018412  0.000149  0.000314
  0O   1dxz      -0.005353  0.051582  0.064765 -0.018756  0.000643  0.002242
  0O   1dyz      -0.008749  0.084280 -0.039213  0.010465  0.000957  0.003663
  0O   1dx2y2     0.004430 -0.042673  0.011709  0.000422  0.002159 -0.001853
  0O   1dxy       0.002513 -0.024211 -0.033105  0.001228  0.000938 -0.001050
  1H   1s         0.240787 -0.948075 -0.817647  0.374970  0.001335  0.320951
  1H   2s         1.134100  1.006697  0.702233 -0.124946 -0.000450  0.850225
  1H   1pz        0.007896 -0.020732 -0.156990  0.005896 -0.014275 -0.167967
  1H   1px       -0.010283  0.055711  0.092368  0.055957 -0.023897  0.131084
  1H   1py       -0.008344  0.064711 -0.001225  0.088431  0.016473  0.046790
  2H   1s        -0.240826  0.947838 -0.817890  0.375009  0.001321 -0.321004
  2H   2s        -1.134131 -1.006540  0.702502 -0.124936 -0.000441 -0.850293
  2H   1pz        0.008930 -0.027747  0.160551  0.003039 -0.014297 -0.176664
  2H   1px        0.002902 -0.034427 -0.046912  0.057211 -0.023890  0.020074
  2H   1py        0.012231 -0.075891  0.072144  0.087774  0.016470 -0.126418
                     12        13        14        15        16        17   
                   0.95975   1.22093   1.24470   1.39962   1.66993   2.01352
                   0.00000   0.00000   0.00000   0.00000   0.00000   0.00000
                  --------  --------  --------  --------  --------  --------
  0O   1s         0.224435 -0.000016  0.078515  0.000000  0.000002 -0.000007
  0O   2s         1.469101 -0.000129  0.671106  0.000000  0.000005 -0.000030
  0O   3s        -2.715778  0.000299 -1.634152  0.000001  0.000038 -0.000048
  0O   1pz       -0.007410  0.000000 -0.004960 -0.009732  0.006950  0.591580
  0O   1px       -0.095054  0.000011 -0.063715 -0.016396 -0.003052 -0.259460
  0O   1py       -0.148252  0.000021 -0.099397  0.011002  0.001601  0.136702
  0O   2pz        0.031747 -0.000007  0.050111  0.253099  0.702439  0.079119
  0O   2px        0.407262 -0.000120  0.641038  0.426361 -0.308133 -0.034693
  0O   2py        0.635292 -0.000166  1.000136 -0.285974  0.162258  0.018292
  0O   1dz2       0.065542  0.142148 -0.103151  0.008082  0.002776  0.013156
  0O   1dxz      -0.053962  0.102258 -0.004672  0.067516  0.019711  0.093781
  0O   1dyz       0.027835 -0.073769  0.022196  0.087806  0.032211  0.153291
  0O   1dx2y2     0.011092 -0.039205 -0.084519  0.205674 -0.016309 -0.077612
  0O   1dxy      -0.018031  0.072582  0.185499  0.089399 -0.009282 -0.044017
  1H   1s         0.551579 -0.000125  0.725493 -0.000019 -0.313716 -0.121696
  1H   2s         0.511507 -0.000040  0.179916  0.000004 -0.100992 -0.362315
  1H   1pz        0.059710  0.290457 -0.413173 -0.315336 -0.419581  0.594065
  1H   1px        0.145515  0.489233 -0.044256 -0.531245 -0.200359 -0.530477
  1H   1py        0.269788 -0.328055 -0.431849  0.356292 -0.670088 -0.265185
  2H   1s         0.551521 -0.000120  0.725542  0.000001  0.313637  0.121731
  2H   2s         0.511435 -0.000034  0.179862  0.000005  0.101002  0.362348
  2H   1pz       -0.033765 -0.290442  0.379029 -0.315345 -0.361535  0.634932
  2H   1px        0.186480 -0.489145 -0.391886 -0.531242  0.543008 -0.008543
  2H   1py        0.248169  0.328153 -0.248629  0.356324  0.489632  0.549181
                     18        19        20        21        22        23   
                   2.05550   2.70661   2.73176   2.93126   3.22968   3.57745
                   0.00000   0.00000   0.00000   0.00000   0.00000   0.00000
                  --------  --------  --------  --------  --------  --------
  0O   1s         0.138386  0.000000 -0.000000 -0.006955 -0.071575 -0.000000
  0O   2s         0.674503  0.000001  0.000001 -0.108965 -0.085275 -0.000009
  0O   3s         0.637768  0.000002 -0.000016  0.385785 -2.000187  0.000015
  0O   1pz       -0.023074  0.007118  0.000001  0.000820  0.015719 -0.402919
  0O   1px       -0.295739  0.011999  0.000001  0.010538  0.201240  0.176726
  0O   1py       -0.461362 -0.008049  0.000002  0.016437  0.313968 -0.093089
  0O   2pz       -0.007573 -0.140752 -0.000014 -0.020392  0.042096 -0.999718
  0O   2px       -0.096809 -0.237130 -0.000027 -0.260996  0.538875  0.438490
  0O   2py       -0.151051  0.159042  0.000031 -0.407187  0.840711 -0.230980
  0O   1dz2      -0.119427  0.032969 -0.714480 -0.669894 -0.443187  0.086751
  0O   1dxz       0.212408  0.274825 -0.514004  0.241023  0.734795  0.618824
  0O   1dyz      -0.134731  0.357306  0.370851 -0.055786 -0.460658  1.011334
  0O   1dx2y2     0.065107  0.837004  0.197259 -0.345628  0.201650 -0.512052
  0O   1dxy      -0.167069  0.363868 -0.364969  0.728480 -0.526336 -0.290460
  1H   1s        -0.319009  0.000003  0.000005 -0.224519  1.158337  1.017903
  1H   2s        -0.214430 -0.000002  0.000001 -0.035493  0.256335  0.291341
  1H   1pz        0.581024  0.192562  0.173690  0.315196 -0.567737 -0.533896
  1H   1px       -0.540515  0.324423  0.292630  0.063186  0.523461  0.539091
  1H   1py       -0.291695 -0.217591 -0.196272  0.373148  0.278025  0.331281
  2H   1s        -0.318996 -0.000005  0.000013 -0.224526  1.158299 -1.017910
  2H   2s        -0.214394  0.000001  0.000003 -0.035481  0.256317 -0.291346
  2H   1pz       -0.624110  0.192610 -0.173634 -0.284763  0.609200 -0.579986
  2H   1px       -0.011910  0.324504 -0.292549  0.326334  0.007233 -0.050539
  2H   1py       -0.570094 -0.217644  0.196206  0.234550  0.549927 -0.588638
--------------
SCF ITERATIONS
--------------
               ***  Starting incremental Fock matrix formation  ***

                         ----------------------------
                         !        ITERATION     0   !
                         ----------------------------
   Total Energy        :     -76.249947358286 Eh
   Energy Change       :     -76.249947358286 Eh
   MAX-DP              :       0.087560187469
   RMS-DP              :       0.009618183928
   Actual Damping      :       0.7000
   Actual Level Shift  :       0.2500 Eh
   Int. Num. El.       :     9.99999894 (UP=    4.99999947 DN=    4.99999947)
   Exchange            :    -9.24551831
   Correlation         :    -0.33680936


                         ----------------------------
                         !        ITERATION     1   !
                         ----------------------------
   Total Energy        :     -76.292999774371 Eh
   Energy Change       :      -0.043052416085 Eh
   MAX-DP              :       0.046134227421
   RMS-DP              :       0.005236791517
   Actual Damping      :       0.7000
   Actual Level Shift  :       0.2500 Eh
   Int. Num. El.       :     9.99999765 (UP=    4.99999883 DN=    4.99999883)
   Exchange            :    -9.07302032
   Correlation         :    -0.33247963

                               ***Turning on DIIS***

                         ----------------------------
                         !        ITERATION     2   !
                         ----------------------------
   Total Energy        :     -76.305199376348 Eh
   Energy Change       :      -0.012199601977 Eh
   MAX-DP              :       0.037590825277
   RMS-DP              :       0.005233360314
   Actual Damping      :       0.0000
   Actual Level Shift  :       0.2500 Eh
   Int. Num. El.       :     9.99999705 (UP=    4.99999853 DN=    4.99999853)
   Exchange            :    -8.98819492
   Correlation         :    -0.33030174
   DIIS-Error          :       0.009964139432


                         ----------------------------
                         !        ITERATION     3   !
                         ----------------------------
   Total Energy        :     -76.329425693275 Eh
   Energy Change       :      -0.024226316926 Eh
   MAX-DP              :       0.025665640249
   RMS-DP              :       0.002904888436
   Actual Damping      :       0.0000
   Actual Level Shift  :       0.2500 Eh
   Int. Num. El.       :     9.99999676 (UP=    4.99999838 DN=    4.99999838)
   Exchange            :    -8.92987514
   Correlation         :    -0.32855639
   DIIS-Error          :       0.058334389897
   DIIS coefficients:
      0.80082   0.19918


                         ----------------------------
                         !        ITERATION     4   !
                         ----------------------------
   Total Energy        :     -76.333285318939 Eh
   Energy Change       :      -0.003859625665 Eh
   MAX-DP              :       0.006390011197
   RMS-DP              :       0.000764749980
   Actual Damping      :       0.0000
   Actual Level Shift  :       0.2500 Eh
   Int. Num. El.       :     9.99999710 (UP=    4.99999855 DN=    4.99999855)
   Exchange            :    -8.97584290
   Correlation         :    -0.32975859
   DIIS-Error          :       0.008169409203
   DIIS coefficients:
      0.24222  -0.08051   0.83828

                      *** Initiating the SOSCF procedure ***
                           *** Shutting down DIIS ***
                      *** Re-Reading the Fockian *** 
                      *** Removing any level shift *** 

                         ----------------------------
                         !        ITERATION     5   !
                         ----------------------------
   Total Energy        :     -76.333439075260 Eh
   Energy Change       :      -0.000153756321 Eh
   MAX-DP              :       0.002501684035
   RMS-DP              :       0.000260270145
   Orbital gradient    :       0.001167918723
   Orbital Rotation    :       0.001167918723
   Actual Damping      :       0.0000
   Int. Num. El.       :     9.99999717 (UP=    4.99999859 DN=    4.99999859)
   Exchange            :    -8.98182673
   Correlation         :    -0.33002992

               *** Restarting incremental Fock matrix formation ***

                         ----------------------------
                         !        ITERATION     6   !
                         ----------------------------
   Total Energy        :     -76.333449858676 Eh
   Energy Change       :      -0.000010783416 Eh
   MAX-DP              :       0.002342513814
   RMS-DP              :       0.000200126470
   Orbital gradient    :       0.000520352499
   Orbital Rotation    :       0.001556279280
   Actual Damping      :       0.0000
   Int. Num. El.       :     9.99999717 (UP=    4.99999859 DN=    4.99999859)
   Exchange            :    -8.98284800
   Correlation         :    -0.33010118


                         ----------------------------
                         !        ITERATION     7   !
                         ----------------------------
   Total Energy        :     -76.333450394159 Eh
   Energy Change       :      -0.000000535483 Eh
   MAX-DP              :       0.000569858672
   RMS-DP              :       0.000058739428
   Orbital gradient    :       0.000513430211
   Orbital Rotation    :       0.000298723406
   Actual Damping      :       0.0000
   Int. Num. El.       :     9.99999718 (UP=    4.99999859 DN=    4.99999859)
   Exchange            :    -8.98405067
   Correlation         :    -0.33015294


                         ----------------------------
                         !        ITERATION     8   !
                         ----------------------------
   Total Energy        :     -76.333451200792 Eh
   Energy Change       :      -0.000000806633 Eh
   MAX-DP              :       0.000358179080
   RMS-DP              :       0.000043728513
   Orbital gradient    :       0.000184195359
   Orbital Rotation    :       0.000323926838
   Actual Damping      :       0.0000
   Int. Num. El.       :     9.99999717 (UP=    4.99999858 DN=    4.99999858)
   Exchange            :    -8.98298448
   Correlation         :    -0.33013168


                         ----------------------------
                         !        ITERATION     9   !
                         ----------------------------
   Total Energy        :     -76.333451322788 Eh
   Energy Change       :      -0.000000121996 Eh
   MAX-DP              :       0.000099028722
   RMS-DP              :       0.000010336658
   Orbital gradient    :       0.000030260322
   Orbital Rotation    :       0.000082074543
   Actual Damping      :       0.0000
   Int. Num. El.       :     9.99999717 (UP=    4.99999859 DN=    4.99999859)
   Exchange            :    -8.98323418
   Correlation         :    -0.33013005


                         ----------------------------
                         !        ITERATION    10   !
                         ----------------------------
   Total Energy        :     -76.333451329584 Eh
   Energy Change       :      -0.000000006796 Eh
   MAX-DP              :       0.000006956078
   RMS-DP              :       0.000000623155
   Orbital gradient    :       0.000005191094
   Orbital Rotation    :       0.000003957859
   Actual Damping      :       0.0000
   Int. Num. El.       :     9.99999717 (UP=    4.99999859 DN=    4.99999859)
   Exchange            :    -8.98322829
   Correlation         :    -0.33013155

                 **** Energy Check signals convergence ****
              ***Rediagonalizing the Fockian in SOSCF/NRSCF***

               *****************************************************
               *                     SUCCESS                       *
               *           SCF CONVERGED AFTER  11 CYCLES          *
               *****************************************************

Setting up the final grid:

General Integration Accuracy     IntAcc      ...  5.010
Radial Grid Type                 RadialGrid  ... Gauss-Chebyshev
Angular Grid (max. acc.)         AngularGrid ... Lebedev-434
Angular grid pruning method      GridPruning ... 3 (G Style)
Weight generation scheme         WeightScheme... Becke
Basis function cutoff            BFCut       ...    1.0000e-11
Integration weight cutoff        WCut        ...    1.0000e-14
Grids for H and He will be reduced by one unit

# of grid points (after initial pruning)     ...  24226 (   0.0 sec)
# of grid points (after weights+screening)   ...  24055 (   0.0 sec)
nearest neighbour list constructed           ...    0.0 sec
Grid point re-assignment to atoms done       ...    0.0 sec
Grid point division into batches done        ...    0.2 sec
Reduced shell lists constructed in    0.2 sec

Total number of grid points                  ...    24055
Total number of batches                      ...      377
Average number of points per batch           ...       63
Average number of grid points per atom       ...     8018
Average number of shells per batch           ...     8.29 (69.05%)
Average number of basis functions per batch  ...    16.29 (67.86%)
Average number of large shells per batch     ...     7.31 (88.18%)
Average number of large basis fcns per batch ...    14.12 (86.72%)
Maximum spatial batch extension              ...  15.15, 15.15, 12.70 au
Average spatial batch extension              ...   0.64,  0.63,  0.62 au

Final grid set up in    0.2 sec
Final integration                            ... done (   0.0 sec)
Change in XC energy                          ...    -0.000008720
Integrated number of electrons               ...    10.000000463
Previous integrated no of electrons          ...     9.999997170

----------------
TOTAL SCF ENERGY
----------------

Total Energy       :          -76.33346005 Eh           -2077.13905 eV

Components:
Nuclear Repulsion  :            9.02432350 Eh             245.56433 eV
Electronic Energy  :          -85.35778355 Eh           -2322.70337 eV
One Electron Energy:         -122.75975381 Eh           -3340.46273 eV
Two Electron Energy:           37.40197026 Eh            1017.75935 eV

Virial components:
Potential Energy   :         -152.11810835 Eh           -4139.34417 eV
Kinetic Energy     :           75.78464830 Eh            2062.20512 eV
Virial Ratio       :            2.00724173


DFT components:
N(Alpha)           :        5.000000231305 electrons
N(Beta)            :        5.000000231305 electrons
N(Total)           :       10.000000462610 electrons
E(X)               :       -8.983234845514 Eh       
E(C)               :       -0.330130978689 Eh       
E(XC)              :       -9.313365824203 Eh       
DFET-embed. en.    :        0.000000000000 Eh       

---------------
SCF CONVERGENCE
---------------

  Last Energy change         ...   -1.0081e-09  Tolerance :   1.0000e-08
  Last MAX-Density change    ...    1.4552e-06  Tolerance :   1.0000e-07
  Last RMS-Density change    ...    2.0140e-07  Tolerance :   5.0000e-09
  Last Orbital Gradient      ...    1.2082e-06  Tolerance :   1.0000e-05
  Last Orbital Rotation      ...    1.6352e-06  Tolerance :   1.0000e-05

             **** THE GBW FILE WAS UPDATED (water.gbw) ****
             **** DENSITY FILE WAS UPDATED (water.scfp) ****
             **** ENERGY FILE WAS UPDATED (water.en.tmp) ****
             **** THE GBW FILE WAS UPDATED (water.gbw) ****
             **** DENSITY FILE WAS UPDATED (water.scfp) ****
----------------
ORBITAL ENERGIES
----------------

  NO   OCC          E(Eh)            E(eV) 
   0   2.0000     -18.751806      -510.2626 
   1   2.0000      -0.887801       -24.1583 
   2   2.0000      -0.450014       -12.2455 
   3   2.0000      -0.309405        -8.4193 
   4   2.0000      -0.227154        -6.1812 
   5   0.0000       0.024791         0.6746 
   6   0.0000       0.100529         2.7355 
   7   0.0000       0.502071        13.6620 
   8   0.0000       0.567025        15.4295 
   9   0.0000       0.874871        23.8064 
  10   0.0000       0.877078        23.8665 
  11   0.0000       0.965810        26.2810 
  12   0.0000       1.049489        28.5581 
  13   0.0000       1.291741        35.1501 
  14   0.0000       1.329634        36.1812 
  15   0.0000       1.476839        40.1868 
  16   0.0000       1.724297        46.9205 
  17   0.0000       2.104930        57.2781 
  18   0.0000       2.155707        58.6598 
  19   0.0000       2.866552        78.0029 
  20   0.0000       2.889592        78.6298 
  21   0.0000       3.079463        83.7964 
  22   0.0000       3.375068        91.8403 
  23   0.0000       3.722853       101.3040 
------------------
MOLECULAR ORBITALS
------------------
                      0         1         2         3         4         5   
                 -18.75181  -0.88780  -0.45001  -0.30940  -0.22715   0.02479
                   2.00000   2.00000   2.00000   2.00000   2.00000   0.00000
                  --------  --------  --------  --------  --------  --------
  0O   1s        -0.988813 -0.275235  0.000000  0.116629 -0.000001  0.104324
  0O   2s         0.039500 -0.551510  0.000003  0.229810 -0.000003  0.179963
  0O   3s        -0.014324 -0.257743 -0.000007  0.382325  0.000001  0.921854
  0O   1pz       -0.000126  0.005443  0.451650  0.022701  0.281340 -0.011343
  0O   1px       -0.001615  0.069662 -0.198101  0.290457  0.473974 -0.145252
  0O   1py       -0.002520  0.108683  0.104350  0.453148 -0.317903 -0.226588
  0O   2pz        0.000006  0.000150  0.182365  0.014025  0.217456 -0.014631
  0O   2px        0.000076  0.001933 -0.079984  0.179463  0.366354 -0.187609
  0O   2py        0.000118  0.003013  0.042140  0.279973 -0.245714 -0.292678
  0O   1dz2       0.000561 -0.001178 -0.001340  0.009430 -0.000636 -0.003644
  0O   1dxz      -0.000855  0.003534 -0.009557 -0.001177 -0.005313 -0.001003
  0O   1dyz       0.000528 -0.002388 -0.015619 -0.000846 -0.006912  0.001400
  0O   1dx2y2    -0.000200  0.001717  0.007908  0.006523 -0.016188 -0.003610
  0O   1dxy       0.000536 -0.004167  0.004485 -0.014140 -0.007036  0.008017
  1H   1s        -0.002266 -0.205917  0.330058 -0.207320  0.000009 -0.133718
  1H   2s         0.002335 -0.013430  0.110840 -0.072025 -0.000007 -0.798028
  1H   1pz        0.002100  0.027540 -0.011043  0.023454  0.014010 -0.006257
  1H   1px       -0.002049 -0.020737  0.019775 -0.002627  0.023605  0.003339
  1H   1py       -0.001196 -0.006546  0.019712  0.016840 -0.015832 -0.000554
  2H   1s        -0.002266 -0.205915 -0.330051 -0.207321  0.000005 -0.133739
  2H   2s         0.002335 -0.013433 -0.110843 -0.072030 -0.000007 -0.797835
  2H   1pz       -0.002270 -0.028848 -0.013297 -0.022296  0.014012  0.006343
  2H   1px       -0.000132  0.003994 -0.009101  0.017438  0.023603 -0.002181
  2H   1py       -0.002206 -0.019575 -0.025337  0.006268 -0.015832  0.002364
                      6         7         8         9        10        11   
                   0.10053   0.50207   0.56703   0.87487   0.87708   0.96581
                   0.00000   0.00000   0.00000   0.00000   0.00000   0.00000
                  --------  --------  --------  --------  --------  --------
  0O   1s        -0.000008 -0.000022  0.103006  0.148642 -0.000334 -0.000017
  0O   2s        -0.000020 -0.000080  0.396180  0.644398 -0.001442 -0.000105
  0O   3s        -0.000039  0.000064 -0.483744 -0.195573  0.000414  0.000180
  0O   1pz        0.353139 -0.262819 -0.016703  0.033354  0.426676  0.699820
  0O   1px       -0.154879  0.115306 -0.213388  0.415880  0.718006 -0.306958
  0O   1py        0.081609 -0.060667 -0.332982  0.645213 -0.483649  0.161689
  0O   2pz        0.536144 -0.279886  0.001188 -0.048149 -0.445417 -1.540415
  0O   2px       -0.235148  0.122781  0.015995 -0.604573 -0.749189  0.675630
  0O   2py        0.123886 -0.064647  0.024939 -0.939454  0.505528 -0.355937
  0O   1dz2      -0.000255 -0.006595 -0.045948 -0.014404 -0.000012  0.000821
  0O   1dxz      -0.001826 -0.047106  0.061171  0.013000 -0.000404  0.005870
  0O   1dyz      -0.002983 -0.076962 -0.036725 -0.006961 -0.000471  0.009592
  0O   1dx2y2     0.001511  0.038968  0.009694 -0.001588 -0.001137 -0.004855
  0O   1dxy       0.000856  0.022110 -0.028278  0.001964 -0.000504 -0.002752
  1H   1s        -0.140358  0.949773 -0.834968 -0.381597  0.000892  0.340391
  1H   2s        -1.244580 -0.919402  0.667793  0.025358 -0.000065  0.799525
  1H   1pz       -0.003631  0.031477 -0.171950  0.003276 -0.015800 -0.187650
  1H   1px        0.006994 -0.071016  0.103825 -0.081510 -0.026429  0.145590
  1H   1py        0.007215 -0.078022  0.002617 -0.118476  0.018128  0.050999
  2H   1s         0.140400 -0.949483 -0.835280 -0.381617  0.000880 -0.340455
  2H   2s         1.244647  0.919218  0.668115  0.025353 -0.000067 -0.799594
  2H   1pz       -0.004452  0.040077  0.176258 -0.015437 -0.015772 -0.197233
  2H   1px       -0.003448  0.039606 -0.048900 -0.073297 -0.026443  0.023217
  2H   1py       -0.009083  0.094526  0.083080 -0.122798  0.018137 -0.139934
                     12        13        14        15        16        17   
                   1.04949   1.29174   1.32963   1.47684   1.72430   2.10493
                   0.00000   0.00000   0.00000   0.00000   0.00000   0.00000
                  --------  --------  --------  --------  --------  --------
  0O   1s        -0.241656 -0.000013 -0.087772  0.000001  0.000002 -0.000008
  0O   2s        -1.522930 -0.000103 -0.724249  0.000001 -0.000001 -0.000030
  0O   3s         2.687760  0.000230  1.723516  0.000000  0.000047 -0.000054
  0O   1pz        0.004472  0.000000  0.005165 -0.009532 -0.001941  0.626602
  0O   1px        0.057516  0.000008  0.066325 -0.016056  0.000848 -0.274821
  0O   1py        0.089677  0.000017  0.103475  0.010776 -0.000452  0.144795
  0O   2pz       -0.025939 -0.000004 -0.051847  0.261419  0.719357  0.096059
  0O   2px       -0.333132 -0.000090 -0.663139  0.440367 -0.315562 -0.042121
  0O   2py       -0.519620 -0.000119 -1.034628 -0.295371  0.166159  0.022209
  0O   1dz2      -0.057103  0.123021  0.089088  0.006943  0.002309  0.011361
  0O   1dxz       0.043922  0.088501  0.004750  0.058001  0.016378  0.080990
  0O   1dyz      -0.021973 -0.063844 -0.019697  0.075430  0.026766  0.132386
  0O   1dx2y2    -0.011975 -0.033934  0.073522  0.176686 -0.013551 -0.067027
  0O   1dxy       0.021127  0.062827 -0.161442  0.076799 -0.007717 -0.038013
  1H   1s        -0.509000 -0.000092 -0.748189 -0.000021 -0.326781 -0.166583
  1H   2s        -0.491045 -0.000033 -0.192984  0.000003 -0.097225 -0.345391
  1H   1pz       -0.068066  0.294968  0.419461 -0.321601 -0.426534  0.595004
  1H   1px       -0.146733  0.496864  0.041201 -0.541798 -0.193757 -0.541592
  1H   1py       -0.278994 -0.333200  0.432791  0.363368 -0.666403 -0.280928
  2H   1s        -0.508923 -0.000086 -0.748244  0.000002  0.326687  0.166626
  2H   2s        -0.490975 -0.000027 -0.192939  0.000006  0.097239  0.345424
  2H   1pz        0.041385 -0.294955 -0.385356 -0.321610 -0.369029  0.637491
  2H   1px       -0.194699 -0.496801  0.394297 -0.541792  0.542757  0.001039
  2H   1py       -0.253682  0.333260  0.246689  0.363402  0.482619  0.565733
                     18        19        20        21        22        23   
                   2.15571   2.86655   2.88959   3.07946   3.37507   3.72285
                   0.00000   0.00000   0.00000   0.00000   0.00000   0.00000
                  --------  --------  --------  --------  --------  --------
  0O   1s         0.145090 -0.000000  0.000000  0.007123  0.068355  0.000001
  0O   2s         0.686655 -0.000000 -0.000003  0.104542  0.075354  0.000009
  0O   3s         0.713642 -0.000004  0.000022 -0.351112  1.941152 -0.000009
  0O   1pz       -0.024270 -0.009651 -0.000001 -0.001237 -0.015248  0.394756
  0O   1px       -0.311071 -0.016267 -0.000003 -0.015861 -0.195190 -0.173146
  0O   1py       -0.485281  0.010911 -0.000002 -0.024743 -0.304530  0.091202
  0O   2pz       -0.009370  0.132935  0.000018  0.019269 -0.040944  0.978991
  0O   2px       -0.119842  0.223960  0.000030  0.246640 -0.524095 -0.429398
  0O   2py       -0.186982 -0.150208 -0.000038  0.384791 -0.817655  0.226191
  0O   1dz2      -0.107153 -0.033248  0.718016  0.674877  0.443180 -0.087062
  0O   1dxz       0.188875 -0.276983  0.516540 -0.244734 -0.741066 -0.621060
  0O   1dyz      -0.119630 -0.360075 -0.372701  0.057619  0.465281 -1.014982
  0O   1dx2y2     0.057142 -0.843515 -0.198266  0.346759 -0.206346  0.513901
  0O   1dxy      -0.146915 -0.366715  0.366768 -0.730526  0.537336  0.291508
  1H   1s        -0.385106 -0.000002 -0.000009  0.203830 -1.133635 -1.006266
  1H   2s        -0.213245  0.000002 -0.000002  0.031997 -0.242916 -0.276994
  1H   1pz        0.600783 -0.181603 -0.165879 -0.298727  0.545853  0.520175
  1H   1px       -0.554970 -0.305959 -0.279479 -0.065823 -0.502060 -0.524889
  1H   1py       -0.295762  0.205206  0.187450 -0.362504 -0.265485 -0.322250
  2H   1s        -0.385085  0.000006 -0.000014  0.203832 -1.133603  1.006269
  2H   2s        -0.213209 -0.000000 -0.000003  0.031986 -0.242902  0.276996
  2H   1pz       -0.644744 -0.181659  0.165816  0.268985 -0.585536  0.565026
  2H   1px       -0.008645 -0.306055  0.279381 -0.314826 -0.005813  0.048914
  2H   1py       -0.583488  0.205270 -0.187373 -0.231359 -0.526866  0.572976


-------
DENSITY
-------
                  0          1          2          3          4          5    
      0       2.134214   0.279079   0.259389   0.002549   0.032599   0.050859
      1       0.279079   0.717071   0.458888   0.004421   0.056530   0.088199
      2       0.259389   0.458888   0.425618   0.014550   0.186238   0.290545
      3       0.002549   0.004421   0.014550   0.567371   0.101697  -0.062861
      4       0.032599   0.056530   0.186238   0.101697   0.706232  -0.064309
      5       0.050859   0.088199   0.290545  -0.062861  -0.064309   0.658225
      6       0.003177   0.006281   0.010644   0.287727   0.142052  -0.087457
      7       0.040647   0.080356   0.136229   0.142059   0.483496  -0.086557
      8       0.063414   0.125368   0.212523  -0.087449  -0.086560   0.419413
      9       0.001739   0.005679   0.007802  -0.001152   0.005240   0.008412
     10      -0.000528  -0.004507  -0.002697  -0.011637  -0.001439   0.001089
     11       0.000073   0.002287   0.000569  -0.018062  -0.001190  -0.000154
     12       0.000971   0.001089   0.004109  -0.001650  -0.014449   0.018229
     13      -0.002064  -0.001860  -0.008680  -0.000595  -0.017243  -0.008314
     14       0.069473   0.131665  -0.052319   0.286492  -0.279878  -0.163764
     15      -0.014025  -0.018106  -0.048220   0.096701  -0.087641  -0.045070
     16      -0.013842  -0.019431   0.003678  -0.000728   0.035111   0.016019
     17       0.014854   0.021504   0.008740   0.030800   0.010133  -0.017759
     18       0.009897   0.014866   0.016285   0.009591  -0.013943   0.028025
     19       0.069471   0.131659  -0.052312  -0.309786  -0.018346  -0.301526
     20      -0.014024  -0.018106  -0.048218  -0.103546   0.000187  -0.091340
     21       0.015169   0.021392  -0.002113  -0.005453   0.001587  -0.038149
     22       0.002129   0.003598   0.011279   0.005896   0.036667  -0.000234
     23       0.016600   0.024298   0.014947  -0.031723  -0.004048   0.006215
                  6          7          8          9         10         11    
      0       0.003177   0.040647   0.063414   0.001739  -0.000528   0.000073
      1       0.006281   0.080356   0.125368   0.005679  -0.004507   0.002287
      2       0.010644   0.136229   0.212523   0.007802  -0.002697   0.000569
      3       0.287727   0.142059  -0.087449  -0.001152  -0.011637  -0.018062
      4       0.142052   0.483496  -0.086560   0.005240  -0.001439  -0.001190
      5      -0.087457  -0.086557   0.419413   0.008412   0.001089  -0.000154
      6       0.161481   0.135193  -0.083640  -0.000501  -0.005829  -0.008727
      7       0.135193   0.345647  -0.086276   0.003129  -0.002773  -0.002879
      8      -0.083640  -0.086276   0.281090   0.005473   0.001167   0.001592
      9      -0.000501   0.003129   0.005473   0.000186   0.000001   0.000041
     10      -0.005829  -0.002773   0.001167   0.000001   0.000268   0.000356
     11      -0.008727  -0.002879   0.001592   0.000041   0.000356   0.000597
     12      -0.003973  -0.010778   0.012285   0.000118   0.000018  -0.000043
     13      -0.001822  -0.010964  -0.004107  -0.000259  -0.000008   0.000002
     14       0.114509  -0.128001  -0.089517  -0.004312  -0.007272  -0.008978
     15       0.038399  -0.043639  -0.031066  -0.001621  -0.002048  -0.003274
     16       0.002731   0.020557   0.005484   0.000392   0.000198  -0.000018
     17       0.017399   0.013109  -0.011530  -0.000086  -0.000766  -0.000843
     18       0.000774  -0.008734   0.018831   0.000299  -0.000292  -0.000395
     19      -0.126254  -0.022408  -0.145149  -0.002543   0.005345   0.011642
     20      -0.042455  -0.008179  -0.049751  -0.001027   0.002189   0.003651
     21       0.000610   0.004279  -0.020665  -0.000337  -0.000042   0.000395
     22       0.007436   0.025025  -0.002578   0.000314  -0.000089  -0.000091
     23      -0.015957  -0.005373   0.009036   0.000250   0.000503   0.001091
                 12         13         14         15         16         17    
      0       0.000971  -0.002064   0.069473  -0.014025  -0.013842   0.014854
      1       0.001089  -0.001860   0.131665  -0.018106  -0.019431   0.021504
      2       0.004109  -0.008680  -0.052319  -0.048220   0.003678   0.008740
      3      -0.001650  -0.000595   0.286492   0.096701  -0.000728   0.030800
      4      -0.014449  -0.017243  -0.279878  -0.087641   0.035111   0.010133
      5       0.018229  -0.008314  -0.163764  -0.045070   0.016019  -0.017759
      6      -0.003973  -0.001822   0.114509   0.038399   0.002731   0.017399
      7      -0.010778  -0.010964  -0.128001  -0.043639   0.020557   0.013109
      8       0.012285  -0.004107  -0.089517  -0.031066   0.005484  -0.011530
      9       0.000118  -0.000259  -0.004312  -0.001621   0.000392  -0.000086
     10       0.000018  -0.000008  -0.007272  -0.002048   0.000198  -0.000766
     11      -0.000043   0.000002  -0.008978  -0.003274  -0.000018  -0.000843
     12       0.000740   0.000100   0.001809   0.000767  -0.000229  -0.000556
     13       0.000100   0.000574   0.010537   0.003146  -0.001187   0.000090
     14       0.001809   0.010537   0.388653   0.108552  -0.028366   0.022693
     15       0.000767   0.003146   0.108552   0.035318  -0.006557   0.005309
     16      -0.000229  -0.001187  -0.028366  -0.006557   0.003262  -0.001049
     17      -0.000556   0.000090   0.022693   0.005309  -0.001049   0.002779
     18       0.001022  -0.000023   0.008730   0.002114  -0.000455   0.000220
     19      -0.008631   0.004616  -0.047095  -0.037781  -0.013786  -0.003415
     20      -0.002740   0.001157  -0.037781  -0.013824  -0.001661  -0.003458
     21      -0.001053   0.000552   0.012358   0.001028  -0.001958   0.001458
     22      -0.000667  -0.000940  -0.014882  -0.004638   0.001900   0.000498
     23       0.000127  -0.000021  -0.011253  -0.006004  -0.000677  -0.000962
                 18         19         20         21         22         23    
      0       0.009897   0.069471  -0.014024   0.015169   0.002129   0.016600
      1       0.014866   0.131659  -0.018106   0.021392   0.003598   0.024298
      2       0.016285  -0.052312  -0.048218  -0.002113   0.011279   0.014947
      3       0.009591  -0.309786  -0.103546  -0.005453   0.005896  -0.031723
      4      -0.013943  -0.018346   0.000187   0.001587   0.036667  -0.004048
      5       0.028025  -0.301526  -0.091340  -0.038149  -0.000234   0.006215
      6       0.000774  -0.126254  -0.042455   0.000610   0.007436  -0.015957
      7      -0.008734  -0.022408  -0.008179   0.004279   0.025025  -0.005373
      8       0.018831  -0.145149  -0.049751  -0.020665  -0.002578   0.009036
      9       0.000299  -0.002543  -0.001027  -0.000337   0.000314   0.000250
     10      -0.000292   0.005345   0.002189  -0.000042  -0.000089   0.000503
     11      -0.000395   0.011642   0.003651   0.000395  -0.000091   0.001091
     12       0.001022  -0.008631  -0.002740  -0.001053  -0.000667   0.000127
     13      -0.000023   0.004616   0.001157   0.000552  -0.000940  -0.000021
     14       0.008730  -0.047095  -0.037781   0.012358  -0.014882  -0.011253
     15       0.002114  -0.037781  -0.013824   0.001028  -0.004638  -0.006004
     16      -0.000455  -0.013786  -0.001661  -0.001958   0.001900  -0.000677
     17       0.000220  -0.003415  -0.003458   0.001458   0.000498  -0.000962
     18       0.001934  -0.017293  -0.006625  -0.001336  -0.000571  -0.000025
     19      -0.017293   0.388643   0.108556   0.029913  -0.002867   0.022197
     20      -0.006625   0.108556   0.035321   0.006924  -0.000603   0.005230
     21      -0.001336   0.029913   0.006924   0.003415  -0.000104   0.001090
     22      -0.000571  -0.002867  -0.000603  -0.000104   0.001920  -0.000223
     23      -0.000025   0.022197   0.005230   0.001090  -0.000223   0.002640



                    ********************************
                    * MULLIKEN POPULATION ANALYSIS *
                    ********************************

-----------------------
MULLIKEN ATOMIC CHARGES
-----------------------
   0 O :   -0.273986
   1 H :    0.136993
   2 H :    0.136993
Sum of atomic charges:    0.0000000

------------------------
MULLIKEN ORBITAL CHARGES
------------------------
The uncorrected charge=density diagonal is given in parenthesis)
   0:   0O   1s           1.988871 (  2.134214)
   1:   0O   2s           1.079813 (  0.717071)
   2:   0O   3s           0.634472 (  0.425618)
   3:   0O   1pz          0.858429 (  0.567371)
   4:   0O   1px          1.020559 (  0.706232)
   5:   0O   1py          0.968053 (  0.658225)
   6:   0O   2pz          0.440297 (  0.161481)
   7:   0O   2px          0.667520 (  0.345647)
   8:   0O   2py          0.606024 (  0.281090)
   9:   0O   1dz2         0.000033 (  0.000186)
  10:   0O   1dxz         0.001717 (  0.000268)
  11:   0O   1dyz         0.004082 (  0.000597)
  12:   0O   1dx2y2       0.002103 (  0.000740)
  13:   0O   1dxy         0.002013 (  0.000574)
  14:   1H   1s           0.700461 (  0.388653)
  15:   1H   2s           0.091338 (  0.035318)
  16:   1H   1pz          0.026098 (  0.003262)
  17:   1H   1px          0.025814 (  0.002779)
  18:   1H   1py          0.019297 (  0.001934)
  19:   2H   1s           0.700453 (  0.388643)
  20:   2H   2s           0.091347 (  0.035321)
  21:   2H   1pz          0.027380 (  0.003415)
  22:   2H   1px          0.018617 (  0.001920)
  23:   2H   1py          0.025211 (  0.002640)
Sum of orbital charges :   10.0000000

--------------------------------
MULLIKEN REDUCED ORBITAL CHARGES
--------------------------------
  0 O s       :     3.703157  s :     3.703157
      pz      :     1.298726  p :     4.560882
      px      :     1.688079
      py      :     1.574077
      dz2     :     0.000033  d :     0.009947
      dxz     :     0.001717
      dyz     :     0.004082
      dx2y2   :     0.002103
      dxy     :     0.002013
  1 H s       :     0.791800  s :     0.791800
      pz      :     0.026098  p :     0.071208
      px      :     0.025814
      py      :     0.019297
  2 H s       :     0.791799  s :     0.791799
      pz      :     0.027380  p :     0.071208
      px      :     0.018617
      py      :     0.025211

------------------------
MULLIKEN OVERLAP CHARGES
------------------------
B(  0-O ,  1-H ) :   0.6288 B(  0-O ,  2-H ) :   0.6288 B(  1-H ,  2-H ) :  -0.0640 


-----------------------------------
MULLIKEN ORBITAL POPULATIONS PER MO
-----------------------------------
THRESHOLD FOR PRINTING IS 0.1%
                      0         1         2         3         4         5   
                 -18.75181  -0.88780  -0.45001  -0.30940  -0.22715   0.02479
                   2.00000   2.00000   2.00000   2.00000   2.00000   0.00000
                  --------  --------  --------  --------  --------  --------
  0O   1s             98.9       0.5      -0.0       0.1       0.0       0.1
  0O   2s              1.4      45.8      -0.0       6.8       0.0       3.2
  0O   3s             -0.2      23.1       0.0       8.9      -0.0     -15.9
  0O   1pz             0.0       0.0      31.7       0.1      11.1       0.0
  0O   1px             0.0       0.8       6.1      12.5      31.6       2.3
  0O   1py             0.0       2.0       1.7      30.5      14.2       5.6
  0O   2pz            -0.0       0.0      13.9       0.0       8.0      -0.0
  0O   2px            -0.0       0.0       2.7       7.9      22.8      -0.1
  0O   2py            -0.0       0.1       0.7      19.3      10.2      -0.4
  0O   1dyz            0.0       0.0       0.2       0.0       0.0      -0.0
  1H   1s             -0.0      11.6      17.8       5.6       0.0       3.3
  1H   2s              0.0       0.8       3.0       0.7       0.0      49.1
  1H   1pz            -0.0       0.8       0.0       0.3       0.2       0.2
  1H   1px            -0.0       0.5       0.2      -0.0       0.6       0.1
  1H   1py            -0.0       0.1       0.3       0.3       0.3      -0.0
  2H   1s             -0.0      11.6      17.8       5.6       0.0       3.3
  2H   2s              0.0       0.8       3.0       0.7       0.0      49.1
  2H   1pz            -0.0       0.9       0.0       0.3       0.2       0.2
  2H   1px            -0.0       0.0       0.1       0.3       0.6       0.0
  2H   1py            -0.0       0.5       0.5       0.1       0.3       0.1

                      6         7         8         9        10        11   
                   0.10053   0.50207   0.56703   0.87487   0.87708   0.96581
                   0.00000   0.00000   0.00000   0.00000   0.00000   0.00000
                  --------  --------  --------  --------  --------  --------
  0O   2s              0.0       0.0       4.8       8.6       0.0       0.0
  0O   3s             -0.0       0.0      -0.5       2.4       0.0       0.0
  0O   1pz            13.8       6.3       0.0       0.1       8.4      20.5
  0O   1px             2.7       1.2       3.4       8.0      23.9       3.9
  0O   1py             0.7       0.3       8.2      19.2      10.8       1.1
  0O   2pz            -4.6       3.8       0.0       0.1      10.8      66.1
  0O   2px            -0.9       0.7       0.1      15.9      30.6      12.7
  0O   2py            -0.2       0.2       0.2      38.4      13.9       3.5
  0O   1dz2           -0.0       0.0       0.6       0.2      -0.0      -0.0
  0O   1dxz           -0.0       0.9       1.0       0.1      -0.0      -0.1
  0O   1dyz           -0.0       2.3       0.4       0.0      -0.0      -0.2
  0O   1dx2y2         -0.0       0.6       0.0      -0.0      -0.0      -0.0
  0O   1dxy           -0.0       0.2       0.2      -0.0      -0.0      -0.0
  1H   1s              3.1      28.5      26.8       0.1       0.0      -3.2
  1H   2s             40.8      10.5       7.3      -0.0      -0.0      -4.2
  1H   1pz             0.1       0.1       4.9      -0.0       0.2       3.7
  1H   1px             0.2       1.0       1.7       0.6       0.4       0.5
  1H   1py             0.1       1.6      -0.0       2.8       0.2      -0.6
  2H   1s              3.1      28.5      26.8       0.1       0.0      -3.2
  2H   2s             40.8      10.5       7.3      -0.0      -0.0      -4.2
  2H   1pz             0.1       0.2       5.2      -0.2       0.2       3.8
  2H   1px             0.0       0.5       0.5       1.4       0.4       0.3
  2H   1py             0.2       2.0       1.0       2.1       0.2      -0.5

                     12        13        14        15        16        17   
                   1.04949   1.29174   1.32963   1.47684   1.72430   2.10493
                   0.00000   0.00000   0.00000   0.00000   0.00000   0.00000
                  --------  --------  --------  --------  --------  --------
  0O   1s              0.2       0.0       0.0       0.0       0.0       0.0
  0O   2s             22.8       0.0       2.7       0.0      -0.0       0.0
  0O   3s             65.7       0.0      15.8      -0.0       0.0      -0.0
  0O   1pz             0.0      -0.0      -0.0      -0.0      -0.0       7.0
  0O   1px             0.1      -0.0      -0.0      -0.0      -0.0       1.3
  0O   1py             0.3       0.0      -0.0      -0.0      -0.0       0.4
  0O   2pz             0.0       0.0       0.0       0.7       3.0      -0.7
  0O   2px             0.9       0.0       5.1       2.1       0.6      -0.1
  0O   2py             2.3       0.0      12.4       0.9       0.2      -0.0
  0O   1dz2            1.4       4.1       2.2       0.0       0.0       0.0
  0O   1dxz            1.0       2.1       0.0       0.8       0.1       2.2
  0O   1dyz            0.3       1.1       0.1       1.3       0.2       5.8
  0O   1dx2y2          0.0       0.3       1.5       7.1       0.0       1.5
  0O   1dxy            0.1       1.1       7.0       1.3       0.0       0.5
  1H   1s             -2.1      -0.0       0.3       0.0       0.2       0.2
  1H   2s             -6.1      -0.0      -1.5       0.0      -0.1       0.1
  1H   1pz             1.6       8.9       9.9       8.4      14.6      20.0
  1H   1px             0.8      25.3       0.5      23.8       2.1      16.4
  1H   1py             8.3      11.4      17.5      10.7      31.1       4.3
  2H   1s             -2.1      -0.0       0.3       0.0       0.2       0.2
  2H   2s             -6.1      -0.0      -1.5       0.0      -0.1       0.1
  2H   1pz             0.9       8.9       7.7       8.4      11.2      23.0
  2H   1px             5.0      25.3      12.7      23.8      21.3      -0.0
  2H   1py             4.8      11.4       7.5      10.7      15.3      17.8

                     18        19        20        21        22        23   
                   2.15571   2.86655   2.88959   3.07946   3.37507   3.72285
                   0.00000   0.00000   0.00000   0.00000   0.00000   0.00000
                  --------  --------  --------  --------  --------  --------
  0O   2s              3.9      -0.0      -0.0      -0.0       0.1       0.0
  0O   3s             -1.0      -0.0       0.0       0.2       1.5       0.0
  0O   1pz             0.0       0.0       0.0       0.0       0.0       0.9
  0O   1px             1.6       0.0       0.0       0.0       0.4       0.2
  0O   1py             3.9       0.0      -0.0       0.0       0.9       0.1
  0O   2pz            -0.0      -0.0      -0.0       0.0      -0.0      -1.3
  0O   2px            -0.4      -0.0      -0.0       0.0      -0.3      -0.3
  0O   2py            -1.0      -0.0      -0.0       0.1      -0.7      -0.1
  0O   1dz2            2.4       0.1      42.9      34.1      11.5       0.4
  0O   1dxz            7.2       6.5      22.2       4.3      32.9      18.7
  0O   1dyz            2.9      11.0      11.6       0.2      13.0      49.9
  0O   1dx2y2          0.6      60.4       3.3       9.2       2.6      12.8
  0O   1dxy            4.2      11.4      11.2      40.8      17.8       4.1
  1H   1s              0.8       0.0       0.0       0.0       3.6       3.3
  1H   2s              0.0       0.0      -0.0      -0.0      -0.4      -0.1
  1H   1pz            17.3       1.0       0.9       2.1       3.2       1.7
  1H   1px            15.2       2.9       2.4       0.1       2.8       1.8
  1H   1py             4.5       1.3       1.1       3.3       0.8       0.7
  2H   1s              0.8       0.0       0.0       0.0       3.6       3.3
  2H   2s              0.0      -0.0      -0.0      -0.0      -0.4      -0.1
  2H   1pz            20.0       1.0       0.9       1.7       3.7       2.0
  2H   1px             0.0       2.9       2.4       2.4       0.0       0.0
  2H   1py            17.0       1.3       1.1       1.4       3.1       2.1



                     *******************************
                     * LOEWDIN POPULATION ANALYSIS *
                     *******************************

----------------------
LOEWDIN ATOMIC CHARGES
----------------------
   0 O :   -0.146421
   1 H :    0.073210
   2 H :    0.073211

-----------------------
LOEWDIN ORBITAL CHARGES
-----------------------
   0:   0O   1s           1.972805
   1:   0O   2s           0.870839
   2:   0O   3s           0.614280
   3:   0O   1pz          0.785512
   4:   0O   1px          0.971695
   5:   0O   1py          0.919978
   6:   0O   2pz          0.571761
   7:   0O   2px          0.718853
   8:   0O   2py          0.701282
   9:   0O   1dz2         0.000213
  10:   0O   1dxz         0.004549
  11:   0O   1dyz         0.009255
  12:   0O   1dx2y2       0.002797
  13:   0O   1dxy         0.002602
  14:   1H   1s           0.574034
  15:   1H   2s           0.180550
  16:   1H   1pz          0.054899
  17:   1H   1px          0.068221
  18:   1H   1py          0.049087
  19:   2H   1s           0.574030
  20:   2H   2s           0.180555
  21:   2H   1pz          0.059218
  22:   2H   1px          0.043977
  23:   2H   1py          0.069009

-------------------------------
LOEWDIN REDUCED ORBITAL CHARGES
-------------------------------
  0 O s       :     3.457925  s :     3.457925
      pz      :     1.357273  p :     4.669080
      px      :     1.690548
      py      :     1.621260
      dz2     :     0.000213  d :     0.019416
      dxz     :     0.004549
      dyz     :     0.009255
      dx2y2   :     0.002797
      dxy     :     0.002602
  1 H s       :     0.754584  s :     0.754584
      pz      :     0.054899  p :     0.172206
      px      :     0.068221
      py      :     0.049087
  2 H s       :     0.754585  s :     0.754585
      pz      :     0.059218  p :     0.172204
      px      :     0.043977
      py      :     0.069009

---------------------------------
LOEWDIN BOND ORDERS (THRESH 0.050000)
---------------------------------
B(  0-O ,  1-H ) :   1.1524 B(  0-O ,  2-H ) :   1.1524 B(  1-H ,  2-H ) :   0.0540 


----------------------------------
LOEWDIN ORBITAL POPULATIONS PER MO
----------------------------------
THRESHOLD FOR PRINTING IS 0.1%
                      0         1         2         3         4         5   
                 -18.75181  -0.88780  -0.45001  -0.30940  -0.22715   0.02479
                   2.00000   2.00000   2.00000   2.00000   2.00000   0.00000
                  --------  --------  --------  --------  --------  --------
  0O   1s             95.7       2.5       0.0       0.4       0.0       0.3
  0O   2s              3.9      32.2       0.0       7.4       0.0       6.4
  0O   3s              0.2      24.1       0.0       6.4       0.0       1.2
  0O   1pz             0.0       0.0      28.5       0.1      10.7       0.0
  0O   1px             0.0       0.6       5.5      12.1      30.5       2.1
  0O   1py             0.0       1.4       1.5      29.4      13.7       5.0
  0O   2pz             0.0       0.0      20.7       0.1       7.8       0.0
  0O   2px             0.0       0.2       4.0       9.6      22.1       0.1
  0O   2py             0.0       0.6       1.1      23.5       9.9       0.4
  0O   1dxz            0.0       0.0       0.2       0.0       0.0       0.1
  0O   1dyz            0.0       0.0       0.4       0.0       0.0       0.0
  0O   1dx2y2          0.0       0.0       0.1       0.0       0.0       0.0
  1H   1s              0.0       9.7      15.1       3.9       0.0       1.1
  1H   2s              0.0       5.7       2.9       0.3       0.0      34.6
  1H   1pz             0.0       1.9       0.0       0.3       0.5       3.6
  1H   1px             0.0       1.5       0.4       0.1       1.5       2.5
  1H   1py             0.0       0.3       0.6       0.8       0.7       0.4
  2H   1s              0.0       9.7      15.1       3.9       0.0       1.1
  2H   2s              0.0       5.7       2.9       0.3       0.0      34.6
  2H   1pz             0.0       2.2       0.0       0.2       0.5       4.0
  2H   1px             0.0       0.0       0.2       0.5       1.5       0.0
  2H   1py             0.0       1.5       0.7       0.5       0.7       2.4

                      6         7         8         9        10        11   
                   0.10053   0.50207   0.56703   0.87487   0.87708   0.96581
                   0.00000   0.00000   0.00000   0.00000   0.00000   0.00000
                  --------  --------  --------  --------  --------  --------
  0O   1s              0.0       0.0       0.2       0.2       0.0       0.0
  0O   2s              0.0       0.0       2.2       9.2       0.0       0.0
  0O   3s              0.0       0.0       1.3       3.1       0.0       0.0
  0O   1pz            14.1       4.9       0.0       0.1       8.8      21.1
  0O   1px             2.7       0.9       3.0       8.6      24.9       4.1
  0O   1py             0.8       0.3       7.2      20.6      11.3       1.1
  0O   2pz             0.3       3.1       0.0       0.1       9.9      46.5
  0O   2px             0.1       0.6       0.2      13.3      27.9       8.9
  0O   2py             0.0       0.2       0.4      32.0      12.7       2.5
  0O   1dz2            0.0       0.0       1.0       0.3       0.0       0.0
  0O   1dxz            0.2       2.0       1.7       0.6       0.0       0.8
  0O   1dyz            0.5       5.5       0.6       0.2       0.0       2.2
  0O   1dx2y2          0.1       1.4       0.0       0.0       0.0       0.6
  0O   1dxy            0.0       0.5       0.4       0.1       0.0       0.2
  1H   1s              2.6      24.0      24.5       1.1       0.0       0.0
  1H   2s             31.2      12.3       8.9       0.0       0.0       2.6
  1H   1pz             2.3       0.1       5.6       1.1       0.4       2.5
  1H   1px             3.0       1.5       1.8       0.3       1.3       0.1
  1H   1py             1.5       2.5       0.0       3.2       0.6       0.8
  2H   1s              2.6      24.0      24.5       1.1       0.0       0.0
  2H   2s             31.2      12.3       8.9       0.0       0.0       2.6
  2H   1pz             2.8       0.2       5.8       0.8       0.4       2.3
  2H   1px             0.1       0.8       0.6       2.1       1.2       1.1
  2H   1py             3.9       3.1       1.1       1.8       0.6       0.0

                     12        13        14        15        16        17   
                   1.04949   1.29174   1.32963   1.47684   1.72430   2.10493
                   0.00000   0.00000   0.00000   0.00000   0.00000   0.00000
                  --------  --------  --------  --------  --------  --------
  0O   1s              0.5       0.0       0.0       0.0       0.0       0.0
  0O   2s             24.3       0.0       4.0       0.0       0.0       0.0
  0O   3s             42.4       0.0       9.9       0.0       0.0       0.0
  0O   1pz             0.0       0.0       0.0       0.0       0.0       9.9
  0O   1px             0.2       0.0       0.1       0.1       0.0       1.9
  0O   1py             0.5       0.0       0.1       0.0       0.0       0.5
  0O   2pz             0.0       0.0       0.0       1.7       5.8       0.4
  0O   2px             0.1       0.0       4.5       4.7       1.1       0.1
  0O   2py             0.2       0.0      11.0       2.1       0.3       0.0
  0O   1dz2            2.9       5.3       2.3       0.0       0.0       0.1
  0O   1dxz            3.0       2.8       0.2       1.0       0.3       4.1
  0O   1dyz            0.9       1.4       0.4       1.6       0.7      11.1
  0O   1dx2y2          0.0       0.4       2.4       9.0       0.2       2.8
  0O   1dxy            0.0       1.4      12.1       1.7       0.1       0.9
  1H   1s              0.2       0.0       2.3       0.0       0.6       0.1
[...]
x,y,z [a.u.] :     0.000003     0.767200     0.000010 
x,y,z [Debye]:     0.000008     1.950067     0.000026 

 


           ************************************************************
           *        Program running with 8 parallel MPI-processes     *
           *              working on a common directory               *
           ************************************************************

-------------------------------------------------------------------------------
                               ORCA SCF HESSIAN
-------------------------------------------------------------------------------

Hessian of the Kohn-Sham DFT energy:
Kohn-Sham wavefunction type                      ... RKS
Hartree-Fock exchange scaling                    ...    0.000
Number of operators                              ...    1
Number of atoms                                  ...    3
Basis set dimensions                             ...   24
Integral neglect threshold                       ... 2.5e-11
Integral primitive cutoff                        ... 2.5e-12

Setting up DFT Hessian calculations              ... 
Electron density on the grid                     ... found on disk
Electron density on the final grid               ... found on disk
Building xc-kernel on the grid                   ... done   (      0.0 sec)
Building xc-kernel on the final grid             ... done   (      0.0 sec)
                                                     done   (      0.0 sec)

Nuclear repulsion Hessian                        ... done   (      0.0 sec)

----------------------------------------------------------
Detailed info about batch handling over perturbations
----------------------------------------------------------

Number of atoms                                    3
Total number of perturbations                      9
Number of perturbations per process                2
Storage mode                                  InCore

Batching info for step 0
Memory available                   ...       1005.3 MB
Memory needed per perturbation     ...          0.0 MB
Number of perturbations per batch  ...            2
Number of batches                  ...            1

Batching info for step 1
Memory available                   ...       1005.3 MB
Memory needed per perturbation     ...          0.0 MB
Number of perturbations per batch  ...            2
Number of batches                  ...            1

Batching info for step 2
Memory available                   ...       1005.3 MB
Memory needed per perturbation     ...          0.0 MB
Number of perturbations per batch  ...            1
Number of batches                  ...            2

Batching info for step 3
Memory available                   ...       1005.3 MB
Memory needed per perturbation     ...          0.0 MB
Number of perturbations per batch  ...            2
Number of batches                  ...            1

Batching info for step 4
Memory available                   ...       1005.3 MB
Memory needed per perturbation     ...          0.0 MB
Number of perturbations per batch  ...            2
Number of batches                  ...            1

Batching info for step 5
Memory available                   ...       1005.3 MB
Memory needed per perturbation     ...          0.2 MB
Number of perturbations per batch  ...            2
Number of batches                  ...            1

Batching info for step 6
Memory available                   ...       1005.3 MB
Memory needed per perturbation     ...          0.0 MB
Number of perturbations per batch  ...            2
Number of batches                  ...            1


----------------------------------------------
Forming right-hand sides of CP-SCF equations     ...
----------------------------------------------

------------------------
Batching info for step 0
------------------------
Number of perturbation per batch  ...            2
Number of batches                 ...            1
Storage mode                      ...       InCore

One electron integral derivatives                ... done   (      0.1 sec)

------------------------
Batching info for step 1
------------------------
Number of perturbation per batch  ...            2
Number of batches                 ...            1
Storage mode                      ...       InCore

Transforming the overlap derivative matrices     ... done   (      0.0 sec)

------------------------
Batching info for step 1
------------------------
Number of perturbation per batch  ...            2
Number of batches                 ...            1
Storage mode                      ...       InCore

Making the Q(x) pseudodensities                  ... done   (      0.0 sec)
Adding the E*S(x)*S(y) terms to the Hessian      ... done   (      0.0 sec)
Calculating energy weighted overlap derivatives  ... done   (      0.0 sec)

------------------------
Batching info for step 3
------------------------
Number of perturbation per batch  ...            2
Number of batches                 ...            1
Storage mode                      ...       InCore

Two electron integral derivatives (RI)           ... done   (      0.2 sec)

------------------------
Batching info for step 4
------------------------
Number of perturbation per batch  ...            2
Number of batches                 ...            1
Storage mode                      ...       InCore

Exchange-correlation integral derivatives        ... done   (      0.1 sec)
tr(F(y)Q(x)) contribution to the Hessian         ... done   (      0.0 sec)

------------------------
Batching info for step 5
------------------------
Number of perturbation per batch  ...            2
Number of batches                 ...            1
Storage mode                      ...       InCore

Response fock operator R(S(x)) (RI)              ... (RIJ)done   (      0.2 sec)

------------------------
Batching info for step 6
------------------------
Number of perturbation per batch  ...            2
Number of batches                 ...            1
Storage mode                      ...       InCore

XC Response fock operator R(S(x))                ... done   (      0.0 sec)
tr(F(y)S(x)) contribution to the Hessian         ... done   (      0.0 sec)
Transforming and finalizing RHSs                 ... done   (      0.0 sec)

----------------------------------------------
Solving the CP-SCF equations (RI)                ...
----------------------------------------------
     CP-SCF ITERATION   0: 
     CP-SCF ITERATION   1:      0.000448436199
     CP-SCF ITERATION   2:      0.000006280031
     CP-SCF ITERATION   3:      0.000000180692
     CP-SCF ITERATION   4:      0.000000000300

                                                 ... done   (      0.6 sec)
Forming perturbed density Hessian contributions  ... done   (      0.0 sec)
Making the perturbed densities                   ... done   (      0.0 sec)
2nd integral derivative contribs (RI)            ... done   (      0.2 sec)
Exchange-correlation Hessian                     ... done   (      0.2 sec)
Dispersion correction in the Hessian             ... 
The revPBE functional is recognized
Active option DFTDOPT                   ...         5   



------------------- 
Dispersion Gradient 
------------------- 
   1  :   -0.000146275   -0.000227101   -0.000012131
   2  :    0.000115398    0.000096532   -0.000084327
   3  :    0.000036297    0.000138782    0.000096680

  |G| =    0.000953523


The revPBE functional is recognized
Active option DFTDOPT                   ...         5   



------------------- 
Dispersion Gradient 
------------------- 
   1  :   -0.000145868   -0.000228705   -0.000010702
   2  :    0.000115642    0.000097452   -0.000085734
   3  :    0.000035194    0.000139239    0.000097019

  |G| =    0.000955556


The revPBE functional is recognized
Active option DFTDOPT                   ...         5   



------------------- 
Dispersion Gradient 
------------------- 
   1  :   -0.000146256   -0.000229006   -0.000011774
   2  :    0.000115514    0.000097137   -0.000084976
   3  :    0.000035924    0.000139755    0.000096909

  |G| =    0.000957250


The revPBE functional is recognized
Active option DFTDOPT                   ...         5   



------------------- 
Dispersion Gradient 
------------------- 
   1  :   -0.000145902   -0.000226801   -0.000011043
   2  :    0.000115530    0.000096847   -0.000085082
   3  :    0.000035570    0.000138272    0.000096788

  |G| =    0.000951834


Dispersion correction Hessian from Numerical Differentiation: 
                  0          1          2          3          4          5    
      0      -0.000041   0.000000   0.000000   0.000000   0.000000   0.000000
      1       0.000000   0.000000   0.000000   0.000000   0.000000   0.000000
      2       0.000000   0.000000   0.000000   0.000000   0.000000   0.000000
      3       0.000000   0.000000   0.000000   0.000000   0.000000   0.000000
      4       0.000000   0.000000   0.000000   0.000000   0.000000   0.000000
      5       0.000000   0.000000   0.000000   0.000000   0.000000   0.000000
      6       0.000000   0.000000   0.000000   0.000000   0.000000   0.000000
      7       0.000000   0.000000   0.000000   0.000000   0.000000   0.000000
      8      -0.000035  -0.000221  -0.000073  -0.000002   0.000029   0.000011
                   6          7          8    
      0       0.000000   0.000000  -0.000035
      1       0.000000   0.000000  -0.000221
      2       0.000000   0.000000  -0.000073
      3       0.000000   0.000000  -0.000002
      4       0.000000   0.000000   0.000029
      5       0.000000   0.000000   0.000011
      6       0.000000   0.000000   0.000035
      7       0.000000   0.000000   0.000148
      8       0.000035   0.000148   0.000012

done   (      0.2 sec)
gCP correction in the Hessian                    ...  
-----------------
gCP hessian 
from Numerical Differentiation: 
-----------------
                  0          1          2          3          4          5    
      0      -0.000218   0.000031  -0.000048   0.000085  -0.000028   0.000051
      1       0.000031  -0.000195   0.000029  -0.000028   0.000117   0.000029
      2      -0.000048   0.000029  -0.000153   0.000051   0.000029   0.000081
      3       0.000085  -0.000028   0.000051  -0.000155   0.000004  -0.000155
      4      -0.000028   0.000117   0.000029   0.000004  -0.000221   0.000026
      5       0.000051   0.000029   0.000081  -0.000155   0.000026   0.000042
      6       0.000133  -0.000003  -0.000003   0.000070   0.000024   0.000105
      7      -0.000003   0.000078  -0.000058   0.000024   0.000103  -0.000055
      8      -0.000003  -0.000058   0.000072   0.000105  -0.000055  -0.000123
                   6          7          8    
      0       0.000133  -0.000003  -0.000003
      1      -0.000003   0.000078  -0.000058
      2      -0.000003  -0.000058   0.000072
      3       0.000070   0.000024   0.000105
      4       0.000024   0.000103  -0.000055
      5       0.000105  -0.000055  -0.000123
      6      -0.000203  -0.000021  -0.000102
      7      -0.000021  -0.000181   0.000114
      8      -0.000102   0.000114   0.000051

done   (      0.0 sec)
Dipol derivatives                                ... done   (      0.1 sec)

-------
TIMINGS
-------

Total SCF Hessian time: 0 days 0 hours 0 min 2 sec 
                   F(y)            G[Q(x)]           CPSCF         Total
Table01         0.2  0.09         0.2  0.08         0.6  0.28         2.3 
Table01a        0.2  0.09,        0.2, 0.08,        0.6  0.28         2.3 
Table01b        0.2   8.9,        0.2,  7.9,        0.6  27.7         2.3 

Writing the Hessian file to the disk             ... done


Maximum memory used throughout the entire calculation: 131.3 MB

-----------------------
VIBRATIONAL FREQUENCIES
-----------------------

Scaling factor for frequencies =  1.000000000  (already applied!)

   0:         0.00 cm**-1
   1:         0.00 cm**-1
   2:         0.00 cm**-1
   3:         0.00 cm**-1
   4:         0.00 cm**-1
   5:         0.00 cm**-1
   6:      1619.07 cm**-1
   7:      3671.68 cm**-1
   8:      3769.05 cm**-1


------------
NORMAL MODES
------------

These modes are the Cartesian displacements weighted by the diagonal matrix
M(i,i)=1/sqrt(m[i]) where m[i] is the mass of the displaced atom
Thus, these vectors are normalized but *not* orthogonal

                  0          1          2          3          4          5    
      0       0.000000   0.000000   0.000000   0.000000   0.000000   0.000000
      1       0.000000   0.000000   0.000000   0.000000   0.000000   0.000000
      2       0.000000   0.000000   0.000000   0.000000   0.000000   0.000000
      3       0.000000   0.000000   0.000000   0.000000   0.000000   0.000000
      4       0.000000   0.000000   0.000000   0.000000   0.000000   0.000000
      5       0.000000   0.000000   0.000000   0.000000   0.000000   0.000000
      6       0.000000   0.000000   0.000000   0.000000   0.000000   0.000000
      7       0.000000   0.000000   0.000000   0.000000   0.000000   0.000000
      8       0.000000   0.000000   0.000000   0.000000   0.000000   0.000000
                   6          7          8    
      0       0.037749  -0.027359  -0.027136
      1       0.058895  -0.042700   0.014278
      2       0.002950  -0.002156   0.061849
      3      -0.128830   0.444994   0.455009
      4      -0.557337   0.218695   0.260461
      5      -0.412710  -0.502581  -0.472261
      6      -0.470329  -0.010755  -0.024309
      7      -0.377446   0.459039  -0.487076
      8       0.365885   0.536802  -0.509409


-----------
IR SPECTRUM
-----------

 Mode    freq (cm**-1)   T**2         TX         TY         TZ
-------------------------------------------------------------------
   6:      1619.07   45.410077  ( -3.633235  -5.668262  -0.283698)
   7:      3671.68    1.610223  (  0.683525   1.067700   0.055077)
   8:      3769.05   16.473242  (  1.594807  -0.840241  -3.636458)

The first frequency considered to be a vibration is 6
The total number of vibrations considered is 3


--------------------------
THERMOCHEMISTRY AT 298.15K
--------------------------

Temperature         ... 298.15 K
Pressure            ... 1.00 atm
Total Mass          ... 18.02 AMU

Throughout the following assumptions are being made:
  (1) The electronic state is orbitally nondegenerate
  (2) There are no thermally accessible electronically excited states
  (3) Hindered rotations indicated by low frequency modes are not
      treated as such but are treated as vibrations and this may
      cause some error
  (4) All equations used are the standard statistical mechanics
      equations for an ideal gas
  (5) All vibrations are strictly harmonic

freq.    1619.07  E(vib)   ...       0.00 
freq.    3671.68  E(vib)   ...       0.00 
freq.    3769.05  E(vib)   ...       0.00 

------------
INNER ENERGY
------------

The inner energy is: U= E(el) + E(ZPE) + E(vib) + E(rot) + E(trans)
    E(el)   - is the total energy from the electronic structure calculation
              = E(kin-el) + E(nuc-el) + E(el-el) + E(nuc-nuc)
    E(ZPE)  - the the zero temperature vibrational energy from the frequency calculation
    E(vib)  - the the finite temperature correction to E(ZPE) due to population
              of excited vibrational states
    E(rot)  - is the rotational thermal energy
    E(trans)- is the translational thermal energy

Summary of contributions to the inner energy U:
Electronic energy                ...    -76.33275738 Eh
Zero point energy                ...      0.02063974 Eh      12.95 kcal/mol
Thermal vibrational correction   ...      0.00000299 Eh       0.00 kcal/mol
Thermal rotational correction    ...      0.00141627 Eh       0.89 kcal/mol
Thermal translational correction ...      0.00141627 Eh       0.89 kcal/mol
-----------------------------------------------------------------------
Total thermal energy                    -76.30928212 Eh


Summary of corrections to the electronic energy:
(perhaps to be used in another calculation)
Total thermal correction                  0.00283553 Eh       1.78 kcal/mol
Non-thermal (ZPE) correction              0.02063974 Eh      12.95 kcal/mol
-----------------------------------------------------------------------
Total correction                          0.02347527 Eh      14.73 kcal/mol


--------
ENTHALPY
--------

The enthalpy is H = U + kB*T
                kB is Boltzmann's constant
Total free energy                 ...    -76.30928212 Eh 
Thermal Enthalpy correction       ...      0.00094421 Eh       0.59 kcal/mol
-----------------------------------------------------------------------
Total Enthalpy                    ...    -76.30833791 Eh


Note: Rotational entropy computed according to Herzberg 
Infrared and Raman Spectra, Chapter V,1, Van Nostrand Reinhold, 1945 
Point Group:  Cs, Symmetry Number:   1  
Rotational constants in cm-1:    24.907604    14.554902     9.186637 

Vibrational entropy computed according to the QRRHO of S. Grimme
Chem.Eur.J. 2012 18 9955


-------
ENTROPY
-------

The entropy contributions are T*S = T*(S(el)+S(vib)+S(rot)+S(trans))
     S(el)   - electronic entropy
     S(vib)  - vibrational entropy
     S(rot)  - rotational entropy
     S(trans)- translational entropy
The entropies will be listed as mutliplied by the temperature to get
units of energy

Electronic entropy                ...      0.00000000 Eh      0.00 kcal/mol
Vibrational entropy               ...      0.00000337 Eh      0.00 kcal/mol
Rotational entropy                ...      0.00568175 Eh      3.57 kcal/mol
Translational entropy             ...      0.01644380 Eh     10.32 kcal/mol
-----------------------------------------------------------------------
Final entropy term                ...      0.02212892 Eh     13.89 kcal/mol

In case the symmetry of your molecule has not been determined correctly
or in case you have a reason to use a different symmetry number we print 
out the resulting rotational entropy values for sn=1,12 :
 --------------------------------------------------------
|  sn= 1 | S(rot)=       0.00568175 Eh      3.57 kcal/mol|
|  sn= 2 | S(rot)=       0.00502730 Eh      3.15 kcal/mol|
|  sn= 3 | S(rot)=       0.00464447 Eh      2.91 kcal/mol|
|  sn= 4 | S(rot)=       0.00437284 Eh      2.74 kcal/mol|
|  sn= 5 | S(rot)=       0.00416215 Eh      2.61 kcal/mol|
|  sn= 6 | S(rot)=       0.00399001 Eh      2.50 kcal/mol|
|  sn= 7 | S(rot)=       0.00384446 Eh      2.41 kcal/mol|
|  sn= 8 | S(rot)=       0.00371839 Eh      2.33 kcal/mol|
|  sn= 9 | S(rot)=       0.00360718 Eh      2.26 kcal/mol|
|  sn=10 | S(rot)=       0.00350770 Eh      2.20 kcal/mol|
|  sn=11 | S(rot)=       0.00341771 Eh      2.14 kcal/mol|
|  sn=12 | S(rot)=       0.00333555 Eh      2.09 kcal/mol|
 --------------------------------------------------------


-------------------
GIBBS FREE ENERGY
-------------------

The Gibbs free energy is G = H - T*S

Total enthalpy                    ...    -76.30833791 Eh 
Total entropy correction          ...     -0.02212892 Eh    -13.89 kcal/mol
-----------------------------------------------------------------------
Final Gibbs free energy         ...    -76.33046683 Eh

For completeness - the Gibbs free energy minus the electronic energy
G-E(el)                           ...      0.00229055 Eh      1.44 kcal/mol


Timings for individual modules:

Sum of individual times         ...        9.404 sec (=   0.157 min)
GTO integral calculation        ...        1.415 sec (=   0.024 min)  15.1 %
SCF iterations                  ...        3.387 sec (=   0.056 min)  36.0 %
SCF Gradient evaluation         ...        1.250 sec (=   0.021 min)  13.3 %
Geometry relaxation             ...        0.032 sec (=   0.001 min)   0.3 %
Analytical frequency calculation...        3.320 sec (=   0.055 min)  35.3 %
                             ****ORCA TERMINATED NORMALLY****
TOTAL RUN TIME: 0 days 0 hours 0 minutes 9 seconds 894 msec
