
                                 *****************
                                 * O   R   C   A *
                                 *****************

           --- An Ab Initio, DFT and Semiempirical electronic structure package ---

                  #######################################################
                  #                        -***-                        #
                  #          Department of theory and spectroscopy      #
                  #               Directorship: Frank Neese             #
                  #        Max Planck Institute fuer Kohlenforschung    #
                  #                Kaiser Wilhelm Platz 1               #
                  #                 D-45470 Muelheim/Ruhr               #
                  #                      Germany                        #
                  #                                                     #
                  #                  All rights reserved                #
                  #                        -***-                        #
                  #######################################################


                         Program Version 4.2.1 -  RELEASE  -


 With contributions from (in alphabetic order):
   Daniel Aravena         : Magnetic Suceptibility
   Michael Atanasov       : Ab Initio Ligand Field Theory (pilot matlab implementation)
   Alexander A. Auer      : GIAO ZORA, VPT2
   Ute Becker             : Parallelization
   Giovanni Bistoni       : ED, misc. LED, open-shell LED, HFLD
   Martin Brehm           : Molecular dynamics
   Dmytro Bykov           : SCF Hessian
   Vijay G. Chilkuri      : MRCI spin determinant printing, contributions to CSF-ICE
   Dipayan Datta          : RHF DLPNO-CCSD density
   Achintya Kumar Dutta   : EOM-CC, STEOM-CC
   Dmitry Ganyushin       : Spin-Orbit,Spin-Spin,Magnetic field MRCI
   Miquel Garcia          : C-PCM Hessian, Gaussian charge scheme
   Yang Guo               : DLPNO-NEVPT2, CIM, IAO-localization
   Andreas Hansen         : Spin unrestricted coupled pair/coupled cluster methods
   Benjamin Helmich-Paris : CASSCF linear response (MC-RPA)
   Lee Huntington         : MR-EOM, pCC
   Robert Izsak           : Overlap fitted RIJCOSX, COSX-SCS-MP3, EOM
   Christian Kollmar      : KDIIS, OOCD, Brueckner-CCSD(T), CCSD density
   Simone Kossmann        : Meta GGA functionals, TD-DFT gradient, OOMP2, MP2 Hessian
   Martin Krupicka        : AUTO-CI
   Lucas Lang             : DCDCAS
   Dagmar Lenk            : GEPOL surface, SMD
   Dimitrios Liakos       : Extrapolation schemes; Compound Job, initial MDCI parallelization
   Dimitrios Manganas     : Further ROCIS development; embedding schemes
   Dimitrios Pantazis     : SARC Basis sets
   Taras Petrenko         : DFT Hessian,TD-DFT gradient, ASA, ECA, R-Raman, ABS, FL, XAS/XES, NRVS
   Peter Pinski           : DLPNO-MP2, DLPNO-MP2 Gradient
   Christoph Reimann      : Effective Core Potentials
   Marius Retegan         : Local ZFS, SOC
   Christoph Riplinger    : Optimizer, TS searches, QM/MM, DLPNO-CCSD(T), (RO)-DLPNO pert. Triples
   Tobias Risthaus        : Range-separated hybrids, TD-DFT gradient, RPA, STAB
   Michael Roemelt        : Original ROCIS implementation
   Masaaki Saitow         : Open-shell DLPNO-CCSD energy and density
   Barbara Sandhoefer     : DKH picture change effects
   Avijit Sen             : IP-ROCIS
   Kantharuban Sivalingam : CASSCF convergence, NEVPT2, FIC-MRCI
   Bernardo de Souza      : ESD, SOC TD-DFT
   Georgi Stoychev        : AutoAux, RI-MP2 NMR
   Willem Van den Heuvel  : Paramagnetic NMR
   Boris Wezisla          : Elementary symmetry handling
   Frank Wennmohs         : Technical directorship


 We gratefully acknowledge several colleagues who have allowed us to
 interface, adapt or use parts of their codes:
   Stefan Grimme, W. Hujo, H. Kruse,             : VdW corrections, initial TS optimization,
                  C. Bannwarth                     DFT functionals, gCP, sTDA/sTD-DF
   Ed Valeev, F. Pavosevic, A. Kumar             : LibInt (2-el integral package), F12 methods
   Garnet Chan, S. Sharma, J. Yang, R. Olivares  : DMRG
   Ulf Ekstrom                                   : XCFun DFT Library
   Mihaly Kallay                                 : mrcc  (arbitrary order and MRCC methods)
   Andreas Klamt, Michael Diedenhofen            : otool_cosmo (COSMO solvation model)
   Jiri Pittner, Ondrej Demel                    : Mk-CCSD
   Frank Weinhold                                : gennbo (NPA and NBO analysis)
   Christopher J. Cramer and Donald G. Truhlar   : smd solvation model
   Lars Goerigk                                  : TD-DFT with DH, B97 family of functionals
   V. Asgeirsson, H. Jonsson                     : NEB implementation
   FAccTs GmbH                                   : IRC, NEB, NEB-TS, Multilevel, MM, QM/MM, CI optimization
   S Lehtola, MJT Oliveira, MAL Marques          : LibXC Library


 Your calculation uses the libint2 library for the computation of 2-el integrals
 For citations please refer to: http://libint.valeyev.net

 Your ORCA version has been built with support for libXC version: 4.2.3
 For citations please refer to: https://tddft.org/programs/libxc/

 This ORCA versions uses:
   CBLAS   interface :  Fast vector & matrix operations
   LAPACKE interface :  Fast linear algebra routines
   SCALAPACK package :  Parallel linear algebra routines


Your calculation utilizes the geometrical counterpoise correction gCP
Please cite in your paper:
H.Kruse, S. Grimme J.Chem.Phys., 136, (2012), 154101 
   

Your calculation utilizes the atom-pairwise dispersion correction
based on tight binding partial charges (D4)
Cite in your paper:
E.Caldeweyher, C.Bannwarth, S.Grimme, J.Chem.Phys., (2017), 147, 034112.
E.Caldeweyher, S.Ehlert, A.Hansen, H.Neugebauer, S.Grimme, J.Chem.Phys., (2018), in progress.
   

----- Orbital basis set information -----
Your calculation utilizes the basis: def2-SVP
   F. Weigend and R. Ahlrichs, Phys. Chem. Chem. Phys. 7, 3297 (2005).

----- AuxJ basis set information -----
Your calculation utilizes the auxiliary basis: def2/J
   F. Weigend, Phys. Chem. Chem. Phys. 8, 1057 (2006).

cite the ECPs for Xe [Def2-ECP] as follows:
Ce-Yb(ecp-28): M. Dolg, H. Stoll, H.Preuss, J. Chem. Phys., 1989, 90, 1730-1734.
Y-Cd(ecp-28), Hf-Hg(ecp-46): D. Andrae,U. Haeussermann, M. Dolg, H. Stoll, H. Preuss, Theor. Chim. Acta, 1990, 77, 123-141.
In-Sb(ecp-28), Tl-Bi(ecp-46): B. Metz, H. Stoll, M. Dolg, J. Chem. Phys., 2000, 113, 2563-2569.
Te-Xe(ecp-28), Po-Rn(ecp-46): K. A. Peterson, D. Figgen, E. Goll, H. Stoll, M. Dolg, J. Chem. Phys., 2003, 119, 11113-11123.
Rb(ecp-28), Cs(ecp-46): T. Leininger, A. Nicklass, W. Kuechle, H. Stoll, M. Dolg, A. Bergner, Chem. Phys. Lett., 1996, 255, 274-280.
Sr(ecp-28), Ba(ecp-46): M. Kaupp, P. V. Schleyer, H. Stoll and H. Preuss, J. Chem. Phys., 1991, 94, 1360-1366.
La(ecp-46): M. Dolg, H. Stoll, A. Savin, H. Preuss, Theor. Chim. Acta, 1989, 75, 173-194.
Lu(ecp-28): X. Cao, M. Dolg, J. Chem. Phys., 2001, 115, 7348-7355.

ECP parameters for Xe [Def2-ECP] have been obtained from:
TURBOMOLE (7.0.2)

================================================================================
                                        WARNINGS
                       Please study these warnings very carefully!
================================================================================


WARNING: Geometry Optimization
  ===> : Switching off AutoStart
         For restart on a previous wavefunction, please use MOREAD

INFO   : the flag for use of LIBINT has been found!

================================================================================
                                       INPUT FILE
================================================================================
NAME = XeF4.inp
|  1> ! revPBE D4 gCP(DFT/SVP) def2-SVP Opt Freq TightOpt TightSCF Grid4 FinalGrid5 LargePrint
|  2> 
|  3> %pal
|  4>  nprocs 6
|  5> end
|  6> 
|  7> *xyz 0 1
|  8> Xe      -0.423489239      0.179999232      0.024189694
|  9> F        0.709212776      1.232504535      0.106456897
| 10> F       -1.828181215     -1.125238805     -0.077831913
| 11> F       -0.174064590     -0.213728814      1.627222861
| 12> F       -0.710400027      0.632900839     -1.819764031
| 13> *
| 14> 
| 15>                          ****END OF INPUT****
================================================================================

                       *****************************
                       * Geometry Optimization Run *
                       *****************************

Geometry optimization settings:
Update method            Update   .... BFGS
Choice of coordinates    CoordSys .... Z-matrix Internals
Initial Hessian          InHess   .... Almoef's Model

Convergence Tolerances:
Energy Change            TolE     ....  1.0000e-06 Eh
Max. Gradient            TolMAXG  ....  1.0000e-04 Eh/bohr
RMS Gradient             TolRMSG  ....  3.0000e-05 Eh/bohr
Max. Displacement        TolMAXD  ....  1.0000e-03 bohr
RMS Displacement         TolRMSD  ....  6.0000e-04 bohr
Strict Convergence                ....  False
------------------------------------------------------------------------------
                        ORCA OPTIMIZATION COORDINATE SETUP
------------------------------------------------------------------------------

The optimization will be done in new redundant internal coordinates
Making redundant internal coordinates   ...  (new redundants) done
Evaluating the initial hessian          ...  (Almloef) done
Evaluating the coordinates              ...  done
Calculating the B-matrix                .... done
Calculating the G-matrix                .... done
Diagonalizing the G-matrix              .... done
The first mode is                       ....    1
The number of degrees of freedom        ....    7

    -----------------------------------------------------------------
                    Redundant Internal Coordinates


    -----------------------------------------------------------------
         Definition                    Initial Value    Approx d2E/dq
    -----------------------------------------------------------------
      1. B(F   1,Xe  0)                  1.5484         0.976653   
      2. B(F   2,Xe  0)                  1.9202         0.249196   
      3. B(F   3,Xe  0)                  1.6694         0.626138   
      4. B(F   4,Xe  0)                  1.9203         0.249103   
      5. A(F   2,Xe  0,F   3)           90.0000         0.412756   
      6. A(F   1,Xe  0,F   4)           90.0000         0.446997   
      7. A(F   2,Xe  0,F   4)           90.0000         0.351795   
      8. A(F   1,Xe  0,F   3)           90.0000         0.530043   
    -----------------------------------------------------------------

Number of atoms                         .... 5
Number of degrees of freedom            .... 8

         *************************************************************
         *                GEOMETRY OPTIMIZATION CYCLE   1            *
         *************************************************************
---------------------------------
CARTESIAN COORDINATES (ANGSTROEM)
---------------------------------
  Xe    -0.423489    0.179999    0.024190
  F      0.709213    1.232505    0.106457
  F     -1.828181   -1.125239   -0.077832
  F     -0.174065   -0.213729    1.627223
  F     -0.710400    0.632901   -1.819764

----------------------------
CARTESIAN COORDINATES (A.U.)
----------------------------
  NO LB      ZA    FRAG     MASS         X           Y           Z
   0 Xe   26.0000*   0   131.300   -0.800279    0.340149    0.045712
   1 F     9.0000    0    18.998    1.340218    2.329096    0.201174
   2 F     9.0000    0    18.998   -3.454762   -2.126393   -0.147081
   3 F     9.0000    0    18.998   -0.328934   -0.403889    3.075006
   4 F     9.0000    0    18.998   -1.342461    1.196009   -3.438856
* core charge reduced due to ECP

--------------------------------
INTERNAL COORDINATES (ANGSTROEM)
--------------------------------
 Xe     0   0   0     0.000000000000     0.00000000     0.00000000
 F      1   0   0     1.548402131333     0.00000000     0.00000000
 F      1   2   0     1.920212042709   179.99999829     0.00000000
 F      1   2   3     1.669415994963    89.99999998     0.00000000
 F      1   2   4     1.920313257215    90.00000000   180.00000121

---------------------------
INTERNAL COORDINATES (A.U.)
---------------------------
 Xe     0   0   0     0.000000000000     0.00000000     0.00000000
 F      1   0   0     2.926055973400     0.00000000     0.00000000
 F      1   2   0     3.628674879778   179.99999829     0.00000000
 F      1   2   3     3.154739034067    89.99999998     0.00000000
 F      1   2   4     3.628866147474    90.00000000   180.00000121

---------------------
BASIS SET INFORMATION
---------------------
There are 2 groups of distinct atoms

 Group   1 Type Xe  : 11s10p8d2f contracted to 6s5p3d2f pattern {521111/34111/611/11}
 Group   2 Type F   : 7s4p1d contracted to 3s2p1d pattern {511/31/1}

Atom   0Xe   basis set group =>   1
Atom   1F    basis set group =>   2
Atom   2F    basis set group =>   2
Atom   3F    basis set group =>   2
Atom   4F    basis set group =>   2

-------------------------
BASIS SET IN INPUT FORMAT
-------------------------

 # Basis set for element : F 
 NewGTO F 
 S 5 
   1    2894.8325990000     -0.0053493212
   2     435.4193912000     -0.0399677344
   3      98.8433288660     -0.1794126179
   4      27.4851980010     -0.4683246868
   5       8.5405498171     -0.4472416053
 S 1 
   1       1.0654578038      1.0000000000
 S 1 
   1       0.3324734675      1.0000000000
 P 3 
   1      22.6966339240     -0.0647821482
   2       4.9872339257     -0.3403578536
   3       1.3491613954     -0.7348581537
 P 1 
   1       0.3482988198      1.0000000000
 D 1 
   1       1.4000000000      1.0000000000
  end;

 # Basis set for element : Xe
 NewGTO Xe
 S 5 
   1    6420.2481656000      0.0005803743
   2     983.5453066400      0.0037590265
   3     219.4388136400      0.0106482436
   4      23.0125878070     -0.3399766589
   5      18.0483244900      1.3305328819
 S 2 
   1      11.7525501630      0.6426392401
   2       6.2390917199      0.3743679621
 S 1 
   1       2.6257211320      1.0000000000
 S 1 
   1       1.2905042943      1.0000000000
 S 1 
   1       0.3620418506      1.0000000000
 S 1 
   1       0.1406988809      1.0000000000
 P 3 
   1     193.8143254500      0.0040702352
   2      21.7252280860      0.2448817432
   3       9.8891605641     -1.1935854566
 P 4 
   1      13.9606838260     -0.0377633548
   2       4.0928947097      0.2717857050
   3       2.2546815460      0.5382425559
   4       1.1546596184      0.2635338256
 P 1 
   1       0.5232192313      1.0000000000
 P 1 
   1       0.2194556980      1.0000000000
 P 1 
   1       0.0861589968      1.0000000000
 D 6 
   1     135.6030003800      0.0008766390
   2      38.7270626920      0.0065204533
   3      15.3773280890     -0.0099344899
   4       5.2602537686      0.2450969609
   5       2.6590627424      0.4757695225
   6       1.2938205124      0.3857760473
 D 1 
   1       0.5805083014      1.0000000000
 D 1 
   1       0.1800000000      1.0000000000
 F 1 
   1       0.4965279300      1.0000000000
 F 1 
   1       2.5000000000      1.0000000000
  end;

---------------------------------
AUXILIARY/J BASIS SET INFORMATION
---------------------------------
There are 2 groups of distinct atoms

 Group   1 Type Xe  : 11s5p5d3f1g contracted to 8s4p3d2f1g pattern {41111111/2111/311/21/1}
 Group   2 Type F   : 12s5p4d2f1g contracted to 6s4p3d1f1g pattern {711111/2111/211/2/1}

Atom   0Xe   basis set group =>   1
Atom   1F    basis set group =>   2
Atom   2F    basis set group =>   2
Atom   3F    basis set group =>   2
Atom   4F    basis set group =>   2

-------------------------------------
AUXILIARY/J BASIS SET IN INPUT FORMAT
-------------------------------------

 # Auxiliary/J basis set for element : F 
 NewAuxJGTO F 
 S 7 
   1    3514.9201549000      0.0176189594
   2    1231.2458815000      0.0358663858
   3     454.1367336000      0.1239867649
   4     175.8376258000      0.2758620517
   5      71.2081775000      0.4252764982
   6      30.0316883000      0.2651963387
   7      13.1259023000     -0.0078514564
 S 1 
   1       5.9126861000     -1.0000000000
 S 1 
   1       2.7284431000      1.0000000000
 S 1 
   1       1.2813993000      1.0000000000
 S 1 
   1       0.6082793000      1.0000000000
 S 1 
   1       0.2897894000      1.0000000000
 P 2 
   1      49.3740409000     -0.8404235528
   2      13.4874956000     -0.2331250081
 P 1 
   1       3.9664900000      1.0000000000
 P 1 
   1       1.2226629000     -1.0000000000
 P 1 
   1       0.3830317000      1.0000000000
 D 2 
   1      29.9719140000     -0.2160273306
   2       6.7860915000     -0.8915140390
 D 1 
   1       1.8137313000     -1.0000000000
 D 1 
   1       0.5157840000     -1.0000000000
 F 2 
   1       2.8301877000      0.5762078303
   2       0.9155962000      0.5762078303
 G 1 
   1       1.6097500000     -1.0000000000
  end;

 # Auxiliary/J basis set for element : Xe
 NewAuxJGTO Xe
 S 4 
   1      50.8073424000      0.0635544390
   2      29.8866712000     -0.4469812495
   3      17.5803943000      1.5382640399
   4      10.3414081000     -2.0951865520
 S 1 
   1       6.0831811000     -1.0000000000
 S 1 
   1       3.5783417000      1.0000000000
 S 1 
   1       2.1049068000      1.0000000000
 S 1 
   1       0.7283414000      1.0000000000
 S 1 
   1       0.4284361000      1.0000000000
 S 1 
   1       0.2520212000      1.0000000000
 S 1 
   1       0.1482478000      1.0000000000
 P 2 
   1       7.1700000000      0.5100821016
   2       2.5400000000     -1.3056262655
 P 1 
   1       0.8900000000      1.0000000000
 P 1 
   1       0.3100000000      1.0000000000
 P 1 
   1       0.1100000000      1.0000000000
 D 3 
   1      15.9800000000      0.3144166814
   2       5.8900000000     -1.5598050361
   3       2.2100000000      1.2024098727
 D 1 
   1       0.8400000000      1.0000000000
 D 1 
   1       0.3200000000      1.0000000000
 F 2 
   1       2.1300000000     -0.6621352445
   2       0.8700000000      1.2907958834
 F 1 
   1       0.3600000000      1.0000000000
 G 1 
   1       1.0300000000      1.0000000000
  end;

-------------------------
ECP PARAMETER INFORMATION
-------------------------

 Group 1, Type Xe ECP Def2-ECP (replacing 28 core electrons, lmax=3)

Atom   0Xe   ECP group =>   1


-------------------------
ECP BASIS IN INPUT FORMAT
-------------------------

 #ECP Def2-ECP
 NewECP Xe
   N_core 28
   lmax f
   s 7
     1      40.0051840000     49.9979620000  2
     2      17.8122140000    281.0133030000  2
     3       9.3041500000     61.5382550000  2
     4      20.8815570000     23.0892950000  2
     5      20.7834430000     30.0744750000  2
     6       5.2533890000      0.2882270000  2
     7       5.3611880000      0.3869240000  2
   p 8
     1      15.7017720000     67.4391420000  2
     2      15.2586080000    134.8747110000  2
     3       9.2921840000     14.6633000000  2
     4       8.5590030000     29.3547300000  2
     5      20.8815570000     23.0892950000  2
     6      20.7834430000     30.0744750000  2
     7       5.2533890000      0.2882270000  2
     8       5.3611880000      0.3869240000  2
   d 10
     1      15.1856000000     35.4369080000  2
     2      14.2845000000     53.1957720000  2
     3       7.1218890000      9.0462320000  2
     4       6.9919630000     13.2236810000  2
     5       0.6239460000      0.0848530000  2
     6       0.6472840000      0.0441550000  2
     7      20.8815570000     23.0892950000  2
     8      20.7834430000     30.0744750000  2
     9       5.2533890000      0.2882270000  2
    10       5.3611880000      0.3869240000  2
   f 4
     1      20.8815570000    -23.0892950000  2
     2      20.7834430000    -30.0744750000  2
     3       5.2533890000     -0.2882270000  2
     4       5.3611880000     -0.3869240000  2
 End




           ************************************************************
           *        Program running with 6 parallel MPI-processes     *
           *              working on a common directory               *
           ************************************************************
------------------------------------------------------------------------------
                           ORCA GTO INTEGRAL CALCULATION
                           -- RI-GTO INTEGRALS CHOSEN --
------------------------------------------------------------------------------

                         BASIS SET STATISTICS AND STARTUP INFO

Gaussian basis set:
 # of primitive gaussian shells          ...   79
 # of primitive gaussian functions       ...  191
 # of contracted shells                  ...   40
 # of contracted basis functions         ...  106
 Highest angular momentum                ...    3
 Maximum contraction depth               ...    6
Auxiliary gaussian basis set:
 # of primitive gaussian shells          ...  121
 # of primitive gaussian functions       ...  361
 # of contracted shells                  ...   78
 # of contracted aux-basis functions     ...  254
 Highest angular momentum                ...    4
 Maximum contraction depth               ...    7
Ratio of auxiliary to basis functions    ...  2.40
Integral package used                  ... LIBINT
 One Electron integrals                  
   ECP integrals                         ... done
 Ordering auxiliary basis shells         ... done
 Integral threshhold             Thresh  ...  2.500e-11
 Primitive cut-off               TCut    ...  2.500e-12
 Pre-screening matrix                    ... done
 Shell pair data                         ... 
 Ordering of the shell pairs             ... done (   0.000 sec) 786 of 820 pairs
 Determination of significant pairs      ... done (   0.000 sec)
 Creation of shell pair data             ... done (   0.000 sec)
 Storage of shell pair data              ... done (   0.046 sec)
 Shell pair data done in (   0.047 sec)
 Computing two index integrals           ... done
 Cholesky decomposition of the V-matrix  ... done


Timings:
 Total evaluation time                   ...   0.392 sec (  0.007 min)
 One electron matrix time                ...   0.183 sec (  0.003 min) = 46.6%
 Schwartz matrix evaluation time         ...   0.121 sec (  0.002 min) = 31.0%
 Two index repulsion integral time       ...   0.005 sec (  0.000 min) =  1.4%
 Cholesky decomposition of V             ...   0.011 sec (  0.000 min) =  2.8%
 Three index repulsion integral time     ...   0.000 sec (  0.000 min) =  0.0%



           ************************************************************
           *        Program running with 6 parallel MPI-processes     *
           *              working on a common directory               *
           ************************************************************
-------------------------------------------------------------------------------
                                 ORCA SCF
-------------------------------------------------------------------------------

------------
SCF SETTINGS
------------
Hamiltonian:
 Density Functional     Method          .... DFT(GTOs)
 Exchange Functional    Exchange        .... PBE
   PBE kappa parameter   XKappa         ....  1.245000
   PBE mue parameter    XMuePBE         ....  0.219520
 Correlation Functional Correlation     .... PBE
   PBE beta parameter  CBetaPBE         ....  0.066725
 LDA part of GGA corr.  LDAOpt          .... PW91-LDA
 Gradients option       PostSCFGGA      .... off
   Density functional embedding theory  .... OFF
   NL short-range parameter             ....  3.700000
 RI-approximation to the Coulomb term is turned on
   Number of auxiliary basis functions  .... 254


General Settings:
 Integral files         IntName         .... XeF4
 Hartree-Fock type      HFTyp           .... RHF
 Total Charge           Charge          ....    0
 Multiplicity           Mult            ....    1
 Number of Electrons    NEL             ....   62
 Basis Dimension        Dim             ....  106
 Nuclear Repulsion      ENuc            ....    376.2431870608 Eh

Convergence Acceleration:
 DIIS                   CNVDIIS         .... on
   Start iteration      DIISMaxIt       ....    12
   Startup error        DIISStart       ....  0.200000
   # of expansion vecs  DIISMaxEq       ....     5
   Bias factor          DIISBfac        ....   1.050
   Max. coefficient     DIISMaxC        ....  10.000
 Newton-Raphson         CNVNR           .... off
 SOSCF                  CNVSOSCF        .... on
   Start iteration      SOSCFMaxIt      ....   150
   Startup grad/error   SOSCFStart      ....  0.003300
 Level Shifting         CNVShift        .... on
   Level shift para.    LevelShift      ....    0.2500
   Turn off err/grad.   ShiftErr        ....    0.0010
 Zerner damping         CNVZerner       .... off
 Static damping         CNVDamp         .... on
   Fraction old density DampFac         ....    0.7000
   Max. Damping (<1)    DampMax         ....    0.9800
   Min. Damping (>=0)   DampMin         ....    0.0000
   Turn off err/grad.   DampErr         ....    0.1000
 Fernandez-Rico         CNVRico         .... off

SCF Procedure:
 Maximum # iterations   MaxIter         ....   125
 SCF integral mode      SCFMode         .... Direct
   Integral package                     .... LIBINT
 Reset frequency        DirectResetFreq ....    20
 Integral Threshold     Thresh          ....  2.500e-11 Eh
 Primitive CutOff       TCut            ....  2.500e-12 Eh

Convergence Tolerance:
 Convergence Check Mode ConvCheckMode   .... Total+1el-Energy
 Convergence forced     ConvForced      .... 0
 Energy Change          TolE            ....  1.000e-08 Eh
 1-El. energy change                    ....  1.000e-05 Eh
 Orbital Gradient       TolG            ....  1.000e-05
 Orbital Rotation angle TolX            ....  1.000e-05
 DIIS Error             TolErr          ....  5.000e-07


Diagonalization of the overlap matrix:
Smallest eigenvalue                        ... 5.442e-03
Time for diagonalization                   ...    0.024 sec
Threshold for overlap eigenvalues          ... 1.000e-08
Number of eigenvalues below threshold      ... 0
Time for construction of square roots      ...    0.005 sec
Total time needed                          ...    0.029 sec

-------------------
DFT GRID GENERATION
-------------------

General Integration Accuracy     IntAcc      ...  4.670
Radial Grid Type                 RadialGrid  ... Gauss-Chebyshev
Angular Grid (max. acc.)         AngularGrid ... Lebedev-302
Angular grid pruning method      GridPruning ... 3 (G Style)
Weight generation scheme         WeightScheme... Becke
Basis function cutoff            BFCut       ...    1.0000e-11
Integration weight cutoff        WCut        ...    1.0000e-14
Grids for H and He will be reduced by one unit

# of grid points (after initial pruning)     ...  35722 (   0.0 sec)
# of grid points (after weights+screening)   ...  35036 (   0.0 sec)
nearest neighbour list constructed           ...    0.0 sec
Grid point re-assignment to atoms done       ...    0.0 sec
Grid point division into batches done        ...    0.2 sec
Reduced shell lists constructed in    0.3 sec

Total number of grid points                  ...    35036
Total number of batches                      ...      550
Average number of points per batch           ...       63
Average number of grid points per atom       ...     7007
Average number of shells per batch           ...    34.59 (86.48%)
Average number of basis functions per batch  ...    98.23 (92.67%)
Average number of large shells per batch     ...    30.49 (88.16%)
Average number of large basis fcns per batch ...    86.52 (88.08%)
Maximum spatial batch extension              ...  15.09, 14.93,  8.43 au
Average spatial batch extension              ...   0.24,  0.24,  0.21 au

Time for grid setup =    0.466 sec

------------------------------
INITIAL GUESS: MODEL POTENTIAL
------------------------------
Loading Hartree-Fock densities                     ... done
  calling /opt/orca/orca XeF4_atom54.inp > XeF4_atom54.out in order to generate an atomic fitting density for atom 0 (Xe with ECP) on-the-fly... 
    atom 0 (Xe), assumed electronic state with S=1: 1s2 2s2 2p6 3s2 3p6 4s2 3d10 4p6 5s2 4d10 5p6           ... done
Calculating cut-offs                               ... done
Setting up the integral package                    ... done
Initializing the effective Hamiltonian             ... done
Starting the Coulomb interaction                   ... done (   0.0 sec)
Reading the grid                                   ... done
Mapping shells                                     ... done
Starting the XC term evaluation                    ... done (   0.1 sec)
  promolecular density results
     # of electrons  =     90.003670010
     EX              =   -226.397855917
     EC              =     -4.231854767
     EX+EC           =   -230.629710684
Transforming the Hamiltonian                       ... done (   0.0 sec)
Diagonalizing the Hamiltonian                      ... done (   0.0 sec)
Back transforming the eigenvectors                 ... done (   0.0 sec)
Now organizing SCF variables                       ... done
                      ------------------
                      INITIAL GUESS DONE (   1.7 sec)
                      ------------------
----------------------
INITIAL GUESS ORBITALS
----------------------
                      0         1         2         3         4         5   
                 -24.85668 -24.71320 -24.52735 -24.52728 -13.41423 -11.13738
                   2.00000   2.00000   2.00000   2.00000   2.00000   2.00000
                  --------  --------  --------  --------  --------  --------
  0Xe  1s         0.000267  0.000202  0.000107 -0.000086  0.494360 -0.001856
  0Xe  2s        -0.000561 -0.000419 -0.000226  0.000181 -1.224384  0.004472
  0Xe  3s         0.001260  0.000904  0.000601 -0.000481  1.258534 -0.007751
  0Xe  4s        -0.001469 -0.001174 -0.001236  0.000905  0.283694  0.005739
  0Xe  5s         0.006727  0.007241  0.008865 -0.004365  0.003651 -0.001111
  0Xe  6s        -0.020721 -0.018225 -0.018827  0.007999 -0.001013 -0.004111
  0Xe  1pz       -0.000003 -0.000014 -0.000004  0.000010  0.000177  0.009393
  0Xe  1px       -0.000065 -0.000001 -0.000004  0.000000  0.000288  0.132324
  0Xe  1py       -0.000061  0.000005 -0.000003 -0.000004  0.000206  0.123044
  0Xe  2pz       -0.000007 -0.000016 -0.000008  0.000024  0.001073  0.061754
  0Xe  2px       -0.000216  0.000005  0.000000  0.000003  0.001748  0.869976
  0Xe  2py       -0.000204  0.000011  0.000003 -0.000006  0.001251  0.808957
  0Xe  3pz        0.000051  0.000912 -0.000317  0.000791 -0.000187 -0.011465
  0Xe  3px        0.000402  0.000147 -0.000644 -0.000114 -0.000227 -0.158951
  0Xe  3py        0.000365 -0.000219 -0.000492 -0.000421 -0.000143 -0.147730
  0Xe  4pz       -0.000844 -0.008605  0.000496 -0.001783  0.000584  0.007983
  0Xe  4px       -0.007913 -0.001626  0.000296  0.000097  0.000946  0.102840
  0Xe  4py       -0.007246  0.001839  0.000088  0.000797  0.000675  0.095357
  0Xe  5pz       -0.000093 -0.002816  0.001466 -0.003370 -0.000068 -0.001821
  0Xe  5px       -0.001722 -0.000407  0.002937  0.000459 -0.000116 -0.024880
  0Xe  5py       -0.001613  0.000721  0.002235  0.001770 -0.000084 -0.023113
  0Xe  1dz2       0.000230 -0.000092 -0.000002 -0.000114  0.000006 -0.001868
  0Xe  1dxz       0.000007  0.000008  0.000038 -0.000023  0.000113  0.000604
  0Xe  1dyz      -0.000042  0.000046 -0.000041  0.000058 -0.000085  0.000562
  0Xe  1dx2y2    -0.000019  0.000014  0.000008  0.000007  0.000025  0.000376
  0Xe  1dxy      -0.000284  0.000070  0.000182  0.000011  0.000439  0.003260
  0Xe  2dz2      -0.000067 -0.000302 -0.000005  0.000036 -0.000008  0.001867
  0Xe  2dxz      -0.000088 -0.000177 -0.000109  0.000015  0.000085 -0.000508
  0Xe  2dyz       0.000069  0.000148  0.000102 -0.000051 -0.000066 -0.000436
  0Xe  2dx2y2    -0.000015 -0.000016 -0.000022 -0.000003  0.000020 -0.000334
  0Xe  2dxy      -0.000242 -0.000214 -0.000471  0.000088  0.000354 -0.003340
  0Xe  3dz2       0.005997 -0.009882  0.002123  0.009620 -0.000142  0.002970
  0Xe  3dxz      -0.001005 -0.002987 -0.001122  0.001816 -0.000023  0.001610
  0Xe  3dyz      -0.000906  0.004147  0.000637 -0.003792  0.000071  0.000791
  0Xe  3dx2y2    -0.000838  0.000237 -0.000435 -0.000536  0.000011  0.000341
  0Xe  3dxy      -0.010493  0.000790 -0.007651 -0.003766  0.000028 -0.003412
  0Xe  1f0       -0.000067 -0.000469  0.000153 -0.000559  0.000103 -0.000183
  0Xe  1f+1      -0.000267 -0.000364 -0.000039 -0.000410 -0.000093 -0.001008
  0Xe  1f-1      -0.000183  0.000449 -0.000312  0.000396 -0.000231 -0.001140
  0Xe  1f+2      -0.000187  0.000003  0.000116  0.000090 -0.000002  0.000959
  0Xe  1f-2       0.000020 -0.000269  0.000101 -0.000130  0.000019  0.000442
  0Xe  1f+3      -0.000055  0.000081  0.000365  0.000242  0.000179  0.002791
  0Xe  1f-3       0.000060  0.000100 -0.000489 -0.000161 -0.000222 -0.003446
  0Xe  2f0        0.000030 -0.000119 -0.000017  0.000051  0.000023  0.000003
  0Xe  2f+1       0.000165 -0.000016 -0.000004  0.000044 -0.000034  0.000018
  0Xe  2f-1       0.000145  0.000059  0.000032 -0.000050 -0.000065  0.000039
  0Xe  2f+2       0.000036  0.000016 -0.000023 -0.000013 -0.000002 -0.000079
  0Xe  2f-2      -0.000030  0.000086 -0.000017  0.000036  0.000005 -0.000028
  0Xe  2f+3      -0.000116 -0.000024 -0.000050 -0.000035  0.000052 -0.000161
  0Xe  2f-3       0.000146 -0.000015  0.000068  0.000016 -0.000064  0.000201
  1F   1s         0.988429 -0.000141 -0.000515 -0.000061  0.000029  0.000523
  1F   2s        -0.043248 -0.000396 -0.001849 -0.000205  0.000186 -0.002874
  1F   3s         0.037319  0.000511  0.008015  0.002646 -0.000857 -0.006943
  1F   1pz       -0.000205  0.000014 -0.000062  0.000111 -0.000003  0.000140
  1F   1px       -0.002881  0.000005 -0.000237 -0.000012  0.000004  0.002847
  1F   1py       -0.002679 -0.000001 -0.000203 -0.000055  0.000005  0.002672
  1F   2pz       -0.000479  0.000971 -0.000477  0.000730  0.000014 -0.000620
  1F   2px       -0.007747 -0.000211 -0.002301 -0.000328  0.000496  0.001464
  1F   2py       -0.007231 -0.000585 -0.002016 -0.000603  0.000470  0.001646
  1F   1dz2      -0.000174  0.000128  0.000019 -0.000177  0.000087 -0.004655
  1F   1dxz       0.000015 -0.000088  0.000046 -0.000130 -0.000012  0.000678
  1F   1dyz       0.000006 -0.000234  0.000001  0.000043 -0.000014  0.000685
  1F   1dx2y2     0.000018 -0.000059  0.000012 -0.000022 -0.000012  0.000618
  1F   1dxy       0.000321  0.000130  0.000067 -0.000083 -0.000145  0.007962
  2F   1s         0.000173  0.000102  0.927791  0.341803 -0.000004  0.000042
  2F   2s        -0.001757 -0.000333 -0.037977 -0.013757 -0.000081 -0.001700
  2F   3s         0.006396  0.000029  0.023992  0.009149  0.000326  0.015779
  2F   1pz        0.000004  0.000108  0.000064  0.000163 -0.000001  0.000070
  2F   1px        0.000186  0.000072  0.001451  0.000492 -0.000011 -0.000168
  2F   1py        0.000176  0.000026  0.001365  0.000407 -0.000010 -0.000189
  2F   2pz        0.000102  0.000705  0.000171  0.000711  0.000002  0.001295
  2F   2px        0.002082  0.000196  0.004687  0.001844  0.000132  0.011049
  2F   2py        0.001954 -0.000090  0.004422  0.001485  0.000125  0.010072
  2F   1dz2      -0.000076  0.000118 -0.000212 -0.000186 -0.000011 -0.000218
  2F   1dxz       0.000003  0.000177  0.000033  0.000027  0.000001  0.000092
  2F   1dyz       0.000005  0.000056  0.000003  0.000117 -0.000001  0.000091
  2F   1dx2y2     0.000007  0.000050  0.000026  0.000033  0.000001  0.000053
  2F   1dxy       0.000128  0.000058  0.000432  0.000109  0.000023  0.000369
  3F   1s         0.000084  0.988550 -0.000386  0.000532  0.000010 -0.000002
  3F   2s        -0.000399 -0.042314 -0.000835  0.001186  0.000080  0.000117
  3F   3s         0.000487  0.033398  0.002162 -0.005947 -0.000191 -0.001248
  3F   1pz        0.000015 -0.002997 -0.000177  0.000246  0.000025 -0.000094
  3F   1px        0.000003 -0.000462 -0.000124  0.000007  0.000002 -0.000265
  3F   1py       -0.000003  0.000741 -0.000049 -0.000090 -0.000008 -0.000217
  3F   2pz       -0.000350 -0.009421 -0.001187  0.002303  0.000298  0.000094
  3F   2px        0.000603 -0.001391 -0.000703  0.000197  0.000022 -0.003889
  3F   2py        0.000716  0.002386 -0.000205 -0.000720 -0.000096 -0.003762
  3F   1dz2       0.000018  0.000536  0.000006 -0.000010 -0.000098 -0.000053
  3F   1dxz      -0.000136  0.000134  0.000093  0.000033 -0.000028  0.000529
  3F   1dyz      -0.000226 -0.000256  0.000009  0.000003  0.000043  0.000521
  3F   1dx2y2    -0.000064 -0.000024  0.000029  0.000011  0.000003  0.000214
  3F   1dxy       0.000192 -0.000034  0.000174  0.000082  0.000008  0.000046
  4F   1s         0.000040  0.000362  0.341749 -0.927819 -0.000005  0.000008
  4F   2s        -0.000381 -0.001428 -0.014149  0.037770 -0.000074  0.000126
  4F   3s         0.000198  0.005349  0.008497 -0.024012  0.000313 -0.000779
  4F   1pz        0.000067  0.000246  0.000762 -0.001859 -0.000015 -0.000002
  4F   1px        0.000069  0.000030  0.000024 -0.000330 -0.000003 -0.000146
  4F   1py        0.000039 -0.000068 -0.000278  0.000418  0.000003 -0.000139
  4F   2pz        0.000226  0.002410  0.002241 -0.006229  0.000112 -0.000421
  4F   2px        0.000543  0.000329 -0.000051 -0.001165  0.000004 -0.002016
  4F   2py        0.000431 -0.000636 -0.000933  0.001342 -0.000040 -0.001765
  4F   1dz2       0.000039  0.000072  0.000140 -0.000461  0.000004 -0.000169
  4F   1dxz       0.000192  0.000012  0.000032 -0.000143 -0.000002 -0.000972
  4F   1dyz       0.000101 -0.000038 -0.000124  0.000168 -0.000005 -0.000864
  4F   1dx2y2     0.000065 -0.000005 -0.000013  0.000008 -0.000002 -0.000364
  4F   1dxy       0.000123 -0.000008  0.000118  0.000088  0.000001  0.000152
                      6         7         8         9        10        11   
                 -11.13486 -11.12963  -7.83648  -7.82068  -7.81967  -7.81707
                   2.00000   2.00000   2.00000   2.00000   2.00000   2.00000
                  --------  --------  --------  --------  --------  --------
  0Xe  1s        -0.000633  0.000000 -0.002881 -0.000065  0.004868  0.000001
  0Xe  2s         0.001559 -0.000000  0.006643  0.000148 -0.011140 -0.000001
  0Xe  3s        -0.002090  0.000000 -0.018443 -0.000402  0.030371  0.000003
  0Xe  4s         0.000163 -0.000000  0.027374  0.000571 -0.043126 -0.000004
  0Xe  5s         0.001966 -0.000000 -0.020540 -0.000526  0.020946  0.000002
  0Xe  6s        -0.000313  0.000000 -0.027132  0.000124  0.048601  0.000005
  0Xe  1pz        0.173669 -0.049372  0.000126  0.000162  0.000110 -0.000048
  0Xe  1px        0.027193  0.119822 -0.000017  0.000078  0.000031  0.000117
  0Xe  1py       -0.042497 -0.125092 -0.000066  0.000011 -0.000014 -0.000122
  0Xe  2pz        1.142091 -0.324838  0.001179  0.001300  0.001071 -0.000387
  0Xe  2px        0.178827  0.788363 -0.000658  0.000622  0.000479  0.000940
  0Xe  2py       -0.279472 -0.823031 -0.001095  0.000083  0.000036 -0.000982
  0Xe  3pz       -0.211208  0.054752 -0.011110 -0.000572 -0.010661  0.000361
  0Xe  3px       -0.033152 -0.132879  0.010081 -0.000041 -0.006236 -0.000880
  0Xe  3py        0.051604  0.138722  0.014041  0.000187 -0.001766  0.000918
  0Xe  4pz        0.147743 -0.030698  0.042292 -0.000969  0.045041 -0.000305
  0Xe  4px        0.023435  0.074501 -0.070545 -0.001269  0.038327  0.000756
  0Xe  4py       -0.035862 -0.077777 -0.084264 -0.000833  0.018937 -0.000782
  0Xe  5pz       -0.034637  0.009382 -0.005557  0.001083 -0.005893 -0.000141
  0Xe  5px       -0.005441 -0.022770  0.010117  0.000590 -0.005317  0.000341
  0Xe  5py        0.008459  0.023772  0.011884  0.000138 -0.002767 -0.000357
  0Xe  1dz2       0.001286 -0.000232 -0.777017 -0.088193 -0.555020  0.026389
  0Xe  1dxz       0.001108  0.000098 -0.053515 -0.755460 -0.361147  0.177071
  0Xe  1dyz       0.000170 -0.000505  0.219230 -0.688924  0.388245  0.237810
  0Xe  1dx2y2     0.000255  0.000971  0.062977 -0.288032 -0.029838 -1.023954
  0Xe  1dxy      -0.000163 -0.000176  0.714052  0.084324 -0.747020  0.059283
  0Xe  2dz2      -0.000219  0.000050  0.143944  0.013143  0.085692 -0.003819
  0Xe  2dxz      -0.000404 -0.000023  0.009782  0.112820  0.055898 -0.025633
  0Xe  2dyz      -0.000232  0.000106 -0.040471  0.102931 -0.060274 -0.034423
  0Xe  2dx2y2    -0.000128 -0.000200 -0.011693  0.043021  0.004618  0.148223
  0Xe  2dxy       0.000024  0.000037 -0.132904 -0.012657  0.116417 -0.008580
  0Xe  3dz2      -0.000854 -0.000320 -0.020573 -0.005737 -0.021155  0.001264
  0Xe  3dxz       0.002132  0.000242 -0.002807 -0.049092 -0.010928  0.008609
  0Xe  3dyz       0.002528 -0.000594  0.006636 -0.044671  0.013693  0.011512
  0Xe  3dx2y2     0.000951  0.000819  0.001328 -0.018706 -0.000387 -0.049657
  0Xe  3dxy       0.000307 -0.000220  0.013878  0.005263 -0.019592  0.002868
  0Xe  1f0        0.006182 -0.000461  0.012209 -0.000605  0.007849  0.000327
  0Xe  1f+1       0.003474  0.000329  0.015995  0.000045 -0.000442 -0.000377
  0Xe  1f-1      -0.004770 -0.000342  0.003687  0.000169 -0.010051  0.000302
  0Xe  1f+2      -0.000362 -0.000027 -0.001469  0.000037 -0.000382  0.000106
  0Xe  1f-2       0.000643 -0.000608 -0.003985  0.000746  0.000019 -0.000504
  0Xe  1f+3      -0.000409 -0.000633 -0.013536 -0.000314  0.005245 -0.001556
  0Xe  1f-3      -0.000355 -0.000557  0.016881 -0.000036 -0.006547 -0.001304
  0Xe  2f0       -0.000818  0.000019 -0.001972  0.000670 -0.001224 -0.000213
  0Xe  2f+1      -0.000384 -0.000025 -0.002602 -0.000400 -0.000221  0.000317
  0Xe  2f-1       0.000568  0.000018 -0.000723 -0.000477  0.001396 -0.000126
  0Xe  2f+2       0.000055  0.000009  0.000143 -0.000291 -0.000189 -0.000274
  0Xe  2f-2       0.000079 -0.000042  0.000779 -0.000871 -0.000121  0.000319
  0Xe  2f+3      -0.000003 -0.000119  0.002062  0.000320 -0.000925  0.001027
  0Xe  2f-3       0.000015 -0.000099 -0.002661  0.000104  0.001217  0.000757
  1F   1s        -0.000008  0.000000  0.001209  0.000044 -0.000177 -0.000000
  1F   2s        -0.000015  0.000000 -0.015064  0.000244  0.008386  0.000001
  1F   3s        -0.000667 -0.000000  0.096615  0.000063 -0.047342 -0.000005
  1F   1pz       -0.000635  0.000001  0.000393  0.003090 -0.000329 -0.000680
  1F   1px       -0.000149 -0.000001  0.007780  0.000558 -0.002710  0.001650
  1F   1py        0.000107  0.000002  0.007297 -0.000686 -0.002466 -0.001723
  1F   2pz       -0.006536  0.000710 -0.005566  0.010560 -0.000038 -0.001260
  1F   2px       -0.000931 -0.001722 -0.055337  0.001436  0.022711  0.003060
  1F   2py        0.001688  0.001798 -0.050808 -0.002793  0.021770 -0.003189
  1F   1dz2       0.000028  0.000027 -0.011588  0.000535  0.003879 -0.000197
  1F   1dxz      -0.000225  0.000109  0.001469  0.004986 -0.000621 -0.001292
  1F   1dyz      -0.000246  0.000174  0.001392  0.004520 -0.000339 -0.001747
  1F   1dx2y2    -0.000094 -0.000696  0.001442  0.001902 -0.000510  0.007499
  1F   1dxy       0.000025  0.000046  0.020064 -0.000413 -0.007298 -0.000438
  2F   1s         0.000004  0.000000 -0.000478 -0.000020  0.000402  0.000000
  2F   2s         0.000069 -0.000000 -0.003838 -0.000130  0.003711  0.000000
  2F   3s        -0.000386  0.000000 -0.009763  0.000070 -0.003424 -0.000000
  2F   1pz       -0.000138 -0.000047  0.000075 -0.001747 -0.000114  0.000279
  2F   1px       -0.000013  0.000113  0.002131 -0.000243 -0.000983 -0.000678
  2F   1py        0.000042 -0.000118  0.002012  0.000457 -0.000897  0.000708
  2F   2pz       -0.002528  0.000284 -0.001174 -0.012798 -0.000952  0.002419
  2F   2px       -0.000481 -0.000690 -0.001316 -0.002048 -0.001852 -0.005868
  2F   2py        0.000537  0.000720 -0.000798  0.003090 -0.001400  0.006126
  2F   1dz2      -0.000095  0.000030 -0.001514 -0.000080  0.000892  0.000010
  2F   1dxz      -0.000991  0.000161  0.000041 -0.000765 -0.000147  0.000060
  2F   1dyz      -0.000909  0.000232 -0.000085 -0.000693 -0.000413  0.000083
  2F   1dx2y2    -0.000380 -0.000968  0.000117 -0.000292 -0.000151 -0.000352
  2F   1dxy       0.000089  0.000059  0.002910  0.000058 -0.000906  0.000021
  3F   1s         0.000109 -0.000000 -0.000280  0.000079  0.000082  0.000000
  3F   2s        -0.001541  0.000000  0.011265  0.000486  0.012555  0.000001
  3F   3s        -0.016766  0.000000 -0.036862 -0.000694 -0.041638 -0.000004
  3F   1pz        0.000922 -0.000053 -0.002365  0.000266 -0.001716  0.000018
  3F   1px        0.000072  0.000129 -0.000295  0.001513 -0.000290 -0.000043
  3F   1py       -0.000294 -0.000135  0.000651  0.001344  0.000399  0.000045
  3F   2pz        0.010934  0.000616  0.037745  0.000472  0.035119  0.000059
  3F   2px        0.001023 -0.001495  0.007831  0.008940  0.004535 -0.000135
  3F   2py       -0.003335  0.001561 -0.007396  0.008378 -0.009517  0.000139
  3F   1dz2       0.004678 -0.000131 -0.013708  0.000530 -0.011120  0.000002
  3F   1dxz       0.001408  0.000175 -0.003989  0.002550 -0.002990 -0.000091
  3F   1dyz      -0.001975 -0.000169  0.005975  0.002174  0.005067 -0.000079
  3F   1dx2y2    -0.000115 -0.000038  0.000397  0.000940  0.000417  0.000421
  3F   1dxy      -0.000362 -0.000074  0.000924 -0.000332  0.000777 -0.000016
  4F   1s         0.000048 -0.000000  0.000241 -0.000047  0.000478  0.000000
  4F   2s        -0.002023  0.000000  0.002417 -0.000343  0.004819  0.000001
  4F   3s         0.016781 -0.000000  0.009848  0.000439  0.000536 -0.000000
  4F   1pz       -0.000173 -0.000042 -0.002356 -0.000002 -0.002248  0.000010
  4F   1px        0.000056  0.000101 -0.000323 -0.001250 -0.000354 -0.000026
  4F   1py        0.000122 -0.000106  0.000620 -0.001197  0.000548  0.000027
  4F   2pz        0.016188  0.000306 -0.001221 -0.000639 -0.004401  0.000036
  4F   2px        0.003048 -0.000745  0.001182 -0.009462 -0.001180 -0.000088
  4F   2py       -0.003469  0.000777  0.001614 -0.008812  0.000607  0.000093
  4F   1dz2       0.000858  0.000468 -0.003222 -0.000125 -0.002848 -0.000016
  4F   1dxz       0.000330 -0.000611 -0.000525 -0.000703 -0.000904 -0.000101
  4F   1dyz      -0.000290  0.000621  0.001899 -0.000616  0.001055 -0.000137
  4F   1dx2y2     0.000007  0.000053  0.000266 -0.000262  0.000042  0.000588
  4F   1dxy      -0.000076  0.000268 -0.000022  0.000093  0.000461 -0.000034
                     12        13        14        15        16        17   
                  -7.81520  -3.59621  -2.78534  -2.76756  -2.74224  -2.73510
                   2.00000   2.00000   2.00000   2.00000   2.00000   2.00000
                  --------  --------  --------  --------  --------  --------
  0Xe  1s         0.000000  0.422475  0.024729 -0.009599 -0.000001 -0.003721
  0Xe  2s        -0.000001 -1.126577 -0.065219  0.024928  0.000004  0.009674
  0Xe  3s         0.000003  2.275831  0.149195 -0.059759 -0.000008 -0.023214
  0Xe  4s        -0.000004 -1.072902 -0.115024  0.054100  0.000007  0.020939
  0Xe  5s         0.000002 -1.031302 -0.001235 -0.005826 -0.000000  0.002005
  0Xe  6s         0.000004  0.155200  0.049123 -0.041515 -0.000003 -0.028455
  0Xe  1pz        0.000023  0.001091 -0.000044  0.001637  0.000357  0.002106
  0Xe  1px       -0.000056  0.001977 -0.010038  0.000400 -0.000866  0.000822
  0Xe  1py        0.000058  0.001463 -0.009597 -0.000262  0.000906 -0.000044
  0Xe  2pz        0.000182  0.012231 -0.000489  0.023087  0.004432  0.027249
  0Xe  2px       -0.000443  0.022105 -0.123765  0.005515 -0.010755  0.010500
  0Xe  2py        0.000462  0.016347 -0.118356 -0.003830  0.011250 -0.000700
  0Xe  3pz       -0.000144 -0.013767  0.003669  0.038866 -0.007029 -0.016179
  0Xe  3px        0.000347 -0.029542  0.173208  0.005202  0.017047 -0.009132
  0Xe  3py       -0.000362 -0.022864  0.164460 -0.010354 -0.017828 -0.002358
  0Xe  4pz        0.000007 -0.028527 -0.009768 -0.261995 -0.001554 -0.098086
  0Xe  4px       -0.000005 -0.042194  0.160692 -0.048132  0.003796 -0.030066
  0Xe  4py        0.000010 -0.029158  0.157776  0.057293 -0.003989  0.009917
  0Xe  5pz        0.000094  0.002699  0.000799  0.013548 -0.001870 -0.016459
  0Xe  5px       -0.000229  0.003819  0.002938  0.002257  0.004545 -0.006260
  0Xe  5py        0.000238  0.002593  0.002499 -0.003185 -0.004750  0.000506
  0Xe  1dz2      -0.486838  0.000390  0.018716  0.011164 -0.000509  0.003710
  0Xe  1dxz       0.638202  0.003723 -0.000772  0.000097  0.001877  0.004424
  0Xe  1dyz      -0.643292 -0.002906 -0.002579 -0.008101  0.000490  0.000877
  0Xe  1dx2y2    -0.067709  0.000812 -0.001877 -0.001587 -0.005954  0.001142
  0Xe  1dxy      -0.278460  0.014369 -0.028082 -0.000192 -0.000035  0.001344
  0Xe  2dz2       0.070392 -0.001955 -0.046104 -0.031767  0.000782 -0.009759
  0Xe  2dxz      -0.092277 -0.009628  0.002959 -0.004025 -0.003279 -0.008055
  0Xe  2dyz       0.093013  0.007793  0.007310  0.019438 -0.001137  0.000971
  0Xe  2dx2y2     0.009791 -0.002003  0.005036  0.003034  0.011077 -0.001607
  0Xe  2dxy       0.040263 -0.036173  0.069283  0.000666 -0.000032 -0.003245
  0Xe  3dz2      -0.024208  0.008583 -0.021468 -0.024619  0.002106 -0.012236
  0Xe  3dxz       0.031741  0.001317 -0.004840  0.002636 -0.005923 -0.021783
  0Xe  3dyz      -0.031983 -0.003791  0.000350  0.018787 -0.000255 -0.011447
  0Xe  3dx2y2    -0.003390 -0.000610  0.000175  0.004448  0.015673 -0.006764
  0Xe  3dxy      -0.013844 -0.003080  0.025593  0.004594  0.000537 -0.000425
  0Xe  1f0        0.000342 -0.007597 -0.044721 -0.253926  0.088746 -0.026357
  0Xe  1f+1      -0.000296  0.006278 -0.161116 -0.073782 -0.085772 -0.131639
  0Xe  1f-1       0.000250  0.016202 -0.130874  0.161516  0.073022  0.061585
  0Xe  1f+2       0.000091  0.000356 -0.009136  0.024940  0.022492 -0.044289
  0Xe  1f-2       0.000224 -0.001074  0.038484  0.094983 -0.018078 -0.186316
  0Xe  1f+3      -0.000025 -0.012131  0.148103 -0.032199 -0.168976  0.037414
  0Xe  1f-3       0.000019  0.014985 -0.187594 -0.000931 -0.136632  0.069515
  0Xe  2f0       -0.000370 -0.002746 -0.114494 -0.687107  0.305656 -0.060326
  0Xe  2f+1       0.000161  0.003619 -0.423899 -0.185718 -0.295565 -0.462500
  0Xe  2f-1      -0.000429  0.007359 -0.348715  0.429161  0.251527  0.195426
  0Xe  2f+2       0.000358  0.000151 -0.028058  0.069107  0.077577 -0.162814
  0Xe  2f-2      -0.000241 -0.000644  0.102040  0.282699 -0.063052 -0.676878
  0Xe  2f+3      -0.000042 -0.005967  0.384893 -0.097569 -0.583709  0.138367
  0Xe  2f-3       0.000150  0.007366 -0.488740 -0.005705 -0.472032  0.247223
  1F   1s        -0.000000 -0.016504  0.038485 -0.000820 -0.000003 -0.001618
  1F   2s         0.000001 -0.033543  0.076613 -0.000429 -0.000007 -0.006155
  1F   3s        -0.000004  0.042374 -0.186662  0.001517  0.000017  0.018327
  1F   1pz       -0.000010 -0.000972  0.002330 -0.003518  0.002467  0.007759
  1F   1px        0.000023 -0.016768  0.027949 -0.000965 -0.005995  0.000084
  1F   1py       -0.000025 -0.015678  0.025852  0.000464  0.006255 -0.002982
  1F   2pz       -0.000026 -0.001241  0.007411 -0.016738  0.011887  0.040302
  1F   2px        0.000063 -0.030212  0.072064 -0.003956 -0.028880  0.001047
  1F   2py       -0.000062 -0.028450  0.066105  0.002815  0.030140 -0.014902
  1F   1dz2       0.000028 -0.000409  0.000305  0.001475 -0.000347  0.000295
  1F   1dxz      -0.000038  0.000151  0.000385  0.007153 -0.001921 -0.005452
  1F   1dyz       0.000034  0.000203 -0.000096  0.006273 -0.002737 -0.005956
  1F   1dx2y2     0.000012  0.000096  0.000085  0.002654  0.011498 -0.002242
  1F   1dxy       0.000015  0.000569  0.000553 -0.001325 -0.000696  0.001292
  2F   1s         0.000000 -0.001613 -0.006865  0.000539  0.000001  0.000438
  2F   2s         0.000000  0.000506 -0.041184  0.003216  0.000003  0.002873
  2F   3s        -0.000000 -0.018525  0.094234 -0.009516 -0.000008 -0.007418
  2F   1pz       -0.000006  0.000226  0.000102 -0.002291  0.001472  0.003873
  2F   1px        0.000013  0.002605  0.006579 -0.000912 -0.003577  0.000155
  2F   1py       -0.000014  0.002407  0.006262  0.000030  0.003733 -0.001380
  2F   2pz       -0.000019  0.000117  0.002384 -0.003999  0.005278  0.014343
  2F   2px        0.000047 -0.003465  0.057065 -0.005258 -0.012825 -0.000906
  2F   2py       -0.000049 -0.003366  0.053721 -0.003459  0.013382 -0.006529
  2F   1dz2       0.000289 -0.000283 -0.009867  0.000491  0.000136  0.000640
  2F   1dxz      -0.000379  0.000031  0.001040 -0.002542  0.001062  0.002906
  2F   1dyz       0.000383  0.000088  0.000999 -0.002416  0.001367  0.002725
  2F   1dx2y2     0.000039  0.000039  0.001145 -0.001037 -0.006003  0.001092
  2F   1dxy       0.000165  0.000353  0.017049 -0.000851  0.000336 -0.001020
  3F   1s         0.000000 -0.007882 -0.002766 -0.013820  0.000001 -0.005264
  3F   2s         0.000001 -0.015555 -0.008332 -0.043514  0.000004 -0.022621
  3F   3s        -0.000003  0.006802  0.020735  0.174293 -0.000011  0.075127
  3F   1pz        0.000373 -0.011278 -0.002785 -0.005373 -0.000796 -0.003521
  3F   1px       -0.000906 -0.001579 -0.000084 -0.001376  0.001936  0.001309
  3F   1py        0.000946  0.002938  0.001018  0.000803 -0.002019  0.002639
  3F   2pz        0.001937 -0.020719 -0.011504 -0.100191 -0.004784 -0.033708
  3F   2px       -0.004696 -0.002289  0.005917 -0.019289  0.011629  0.006552
  3F   2py        0.004902  0.005984  0.010206  0.021066 -0.012134  0.019558
  3F   1dz2       0.001930  0.002569  0.001210  0.013379  0.003257  0.002951
  3F   1dxz      -0.002532  0.000864 -0.005777  0.004362 -0.004228 -0.000980
  3F   1dyz       0.002552 -0.001009 -0.006492 -0.004974  0.004347 -0.004331
  3F   1dx2y2     0.000271 -0.000029 -0.002461 -0.000163  0.000238 -0.000933
  3F   1dxy       0.001104 -0.000172  0.000242 -0.001860  0.001872  0.002847
  4F   1s         0.000000 -0.001616 -0.000083  0.005231 -0.000000  0.002120
  4F   2s         0.000000  0.000428  0.001118  0.038197 -0.000002  0.015462
  4F   3s         0.000000 -0.020105 -0.003691 -0.099319  0.000007 -0.039221
  4F   1pz       -0.000281  0.003497  0.000531 -0.006084 -0.000723 -0.002652
  4F   1px        0.000681  0.000584  0.001195 -0.000667  0.001757  0.000016
  4F   1py       -0.000711 -0.000821  0.000935  0.001762 -0.001832  0.001059
  4F   2pz       -0.002433 -0.002846 -0.003301 -0.080502 -0.002589 -0.024607
  4F   2px        0.005906  0.000090  0.001877 -0.010602  0.006297 -0.003625
  4F   2py       -0.006165  0.001209  0.003100  0.021616 -0.006568  0.006227
  4F   1dz2      -0.000147  0.001087 -0.000604 -0.018174 -0.001587 -0.004337
  4F   1dxz       0.000192  0.000352  0.002152 -0.004988  0.002110 -0.000854
  4F   1dyz      -0.000193 -0.000436  0.002627  0.008119 -0.002071  0.002606
  4F   1dx2y2    -0.000020 -0.000017  0.000948  0.000636 -0.000354  0.000317
  4F   1dxy      -0.000084 -0.000082 -0.000313  0.001428 -0.000902 -0.000483
                     18        19        20        21        22        23   
                  -2.73427  -2.73260  -2.72849  -2.64359  -2.59664  -2.51776
                   2.00000   2.00000   2.00000   2.00000   2.00000   2.00000
                  --------  --------  --------  --------  --------  --------
  0Xe  1s         0.002625 -0.000005  0.000003  0.029576  0.016164  0.000000
  0Xe  2s        -0.006914  0.000014 -0.000008 -0.079118 -0.043253 -0.000000
  0Xe  3s         0.016012 -0.000033  0.000018  0.174275  0.095436  0.000001
  0Xe  4s        -0.012828  0.000028 -0.000017 -0.109029 -0.059503 -0.000000
  0Xe  5s        -0.002397  0.000003  0.000002 -0.052984 -0.027498 -0.000000
  0Xe  6s         0.015749 -0.000032  0.000013  0.000211 -0.009732 -0.000000
  0Xe  1pz        0.000557  0.000399  0.000001  0.000062 -0.061399  0.017587
  0Xe  1px       -0.001966 -0.000966 -0.000005 -0.043608 -0.012229 -0.042686
  0Xe  1py       -0.002099  0.001015  0.000003 -0.041795  0.012517  0.044564
  0Xe  2pz        0.007135  0.005052  0.000014  0.000767 -0.757697  0.220141
  0Xe  2px       -0.024537 -0.012227 -0.000063 -0.534719 -0.150924 -0.534307
  0Xe  2py       -0.026271  0.012845  0.000038 -0.512491  0.154462  0.557811
  0Xe  3pz       -0.005996 -0.007012 -0.000033 -0.000357  1.486316 -0.419835
  0Xe  3px        0.033590  0.016977  0.000096  1.050086  0.296619  1.018989
  0Xe  3py        0.034472 -0.017828 -0.000057  1.005981 -0.302455 -1.063814
  0Xe  4pz       -0.019110 -0.003432  0.000043 -0.005158 -0.506233  0.101790
  0Xe  4px        0.031879  0.008264  0.000007 -0.374179 -0.104709 -0.247056
  0Xe  4py        0.038049 -0.008746  0.000010 -0.356377  0.099488  0.257923
  0Xe  5pz       -0.004020 -0.004177 -0.000025  0.000683  0.122263 -0.035436
  0Xe  5px        0.012539  0.010116  0.000067  0.084571  0.024846  0.086007
  0Xe  5py        0.013561 -0.010604 -0.000061  0.080738 -0.024453 -0.089791
  0Xe  1dz2       0.002166  0.001166 -0.000695  0.022012 -0.018126  0.001706
  0Xe  1dxz      -0.000987 -0.001109  0.000771 -0.003792 -0.009927 -0.000865
  0Xe  1dyz      -0.000694  0.001946 -0.001048 -0.005721  0.003394  0.003568
  0Xe  1dx2y2    -0.000530 -0.001869  0.000570 -0.003338 -0.001314 -0.006418
  0Xe  1dxy      -0.004302  0.000762 -0.000428 -0.033150  0.001414  0.001262
  0Xe  2dz2      -0.007482 -0.001909  0.001024 -0.043730  0.035214 -0.003901
  0Xe  2dxz       0.000891  0.001720 -0.001136  0.007983  0.020918  0.002061
  0Xe  2dyz       0.001515 -0.003292  0.001542  0.012498 -0.004573 -0.008079
  0Xe  2dx2y2     0.000980  0.003564 -0.000833  0.006876  0.003241  0.014276
  0Xe  2dxy       0.011360 -0.001279  0.000631  0.064214 -0.003844 -0.002869
  0Xe  3dz2      -0.004970 -0.004630  0.000220  0.003083 -0.007706  0.001828
  0Xe  3dxz       0.006992  0.004824 -0.000216 -0.005836 -0.013212 -0.001196
  0Xe  3dyz       0.006857 -0.007319  0.000347 -0.005049 -0.006825  0.003566
  0Xe  3dx2y2     0.003154  0.005328 -0.000273 -0.002479 -0.004070 -0.005572
  0Xe  3dxy       0.008053 -0.002919  0.000138 -0.006500 -0.000049  0.001296
  0Xe  1f0        0.014546 -0.126289  0.012020  0.008894 -0.027569  0.000978
  0Xe  1f+1       0.085867  0.096499  0.060784  0.034711 -0.014529 -0.000543
  0Xe  1f-1       0.115343 -0.096491  0.078238  0.029328  0.022851  0.000676
  0Xe  1f+2       0.121773 -0.012052 -0.199476 -0.005624  0.001488 -0.000058
  0Xe  1f-2      -0.067805 -0.124263  0.010505 -0.008231 -0.003655  0.002220
  0Xe  1f+3       0.112901 -0.082880  0.037035 -0.045662  0.000371  0.003342
  0Xe  1f-3      -0.093432 -0.075786 -0.068549  0.056280  0.003700  0.002859
  0Xe  2f0        0.064552 -0.457184  0.046365  0.030319 -0.051725  0.006166
  0Xe  2f+1       0.326247  0.349180  0.234161  0.106821 -0.033688 -0.003226
  0Xe  2f-1       0.422429 -0.349366  0.301592  0.086245  0.046619  0.004229
  0Xe  2f+2       0.444335 -0.043385 -0.768714 -0.019948  0.002163 -0.000568
  0Xe  2f-2      -0.251350 -0.450242  0.040544 -0.024739 -0.018845  0.015051
  0Xe  2f+3       0.404100 -0.300933  0.142718 -0.143031  0.005733  0.023357
  0Xe  2f-3      -0.330488 -0.275029 -0.264137  0.175557  0.008236  0.019907
  1F   1s         0.005843 -0.000009  0.000003  0.062802  0.002165  0.000000
  1F   2s         0.019962 -0.000032  0.000008  0.129028  0.003873  0.000000
  1F   3s        -0.050815  0.000083 -0.000016  0.123451  0.011226  0.000000
  1F   1pz        0.002062  0.001095 -0.000004  0.005438 -0.012204  0.004439
  1F   1px        0.004826 -0.002666  0.000011  0.064935  0.000525 -0.010776
  1F   1py        0.003821  0.002769 -0.000006  0.060053  0.005319  0.011250
  1F   2pz        0.007229  0.004931 -0.000022 -0.002029  0.028771 -0.004335
  1F   2px        0.015082 -0.011982  0.000050 -0.040740 -0.000353  0.010521
  1F   2py        0.011649  0.012463 -0.000042 -0.038223 -0.011693 -0.010984
  1F   1dz2      -0.003082  0.000001 -0.002005  0.002084 -0.000732  0.000102
  1F   1dxz      -0.002758 -0.000760  0.002630 -0.000124 -0.003967  0.000850
  1F   1dyz       0.000681 -0.000742 -0.002645 -0.000237 -0.003567  0.001078
  1F   1dx2y2    -0.000527  0.003720 -0.000294 -0.000216 -0.001487 -0.004765
  1F   1dxy      -0.002372 -0.000158 -0.001146 -0.003328  0.000792  0.000264
  2F   1s        -0.001295  0.000002 -0.000001 -0.009052 -0.001089 -0.000000
  2F   2s        -0.008739  0.000014 -0.000004 -0.001644 -0.001725  0.000000
  2F   3s         0.020072 -0.000034  0.000008 -0.084400 -0.004440 -0.000000
  2F   1pz        0.001844  0.000629  0.000013  0.000666 -0.001186  0.000669
  2F   1px        0.001615 -0.001531 -0.000031  0.010578  0.001105 -0.001624
  2F   1py        0.000826  0.001595  0.000034  0.009870  0.001526  0.001695
  2F   2pz        0.008505  0.002357  0.000052 -0.006197  0.009443 -0.001296
  2F   2px        0.009167 -0.005754 -0.000123 -0.057815 -0.001363  0.003146
  2F   2py        0.005450  0.005981  0.000136 -0.052933 -0.005033 -0.003285
  2F   1dz2      -0.000116  0.000089  0.000369  0.006414  0.000696 -0.000114
  2F   1dxz       0.001596  0.000301 -0.000478 -0.001177  0.003260 -0.000629
  2F   1dyz       0.000864  0.000519  0.000493 -0.001069  0.002903 -0.000897
  2F   1dx2y2     0.000569 -0.002023  0.000023 -0.000936  0.001212  0.003765
  2F   1dxy       0.001727  0.000136  0.000213 -0.011217 -0.000747 -0.000228
  3F   1s        -0.001547  0.000001  0.000002 -0.004283  0.042132  0.000000
  3F   2s        -0.005544  0.000001  0.000007 -0.009268  0.080446  0.000000
  3F   3s         0.016126 -0.000000 -0.000027 -0.003298  0.110211 -0.000000
  3F   1pz       -0.001594  0.001739 -0.000008 -0.006222  0.059401  0.002474
  3F   1px       -0.004594 -0.004211  0.000019 -0.005476  0.009086 -0.006005
  3F   1py       -0.003758  0.004411 -0.000023 -0.002790 -0.014740  0.006269
  3F   2pz       -0.009280  0.009236 -0.000007  0.000786 -0.064651 -0.003316
  3F   2px       -0.024632 -0.022368  0.000045  0.014955 -0.006237  0.008049
  3F   2py       -0.019863  0.023433 -0.000062  0.014015  0.019541 -0.008403
  3F   1dz2       0.001653 -0.005042 -0.000084  0.000494  0.001876  0.002297
  3F   1dxz       0.007296  0.006620 -0.000479 -0.002722  0.000099 -0.003027
  3F   1dyz       0.005693 -0.006649 -0.000670 -0.003045 -0.001297  0.003020
  3F   1dx2y2     0.002624 -0.000819  0.002844 -0.001153 -0.000236  0.000398
  3F   1dxy      -0.000018 -0.002877 -0.000171  0.000212  0.000002  0.001310
  4F   1s         0.000597 -0.000000 -0.000001 -0.000214 -0.011910 -0.000000
  4F   2s         0.004689 -0.000002 -0.000006 -0.001607 -0.011533 -0.000000
  4F   3s        -0.011911  0.000005  0.000014  0.003566 -0.072455  0.000000
  4F   1pz       -0.001007  0.001439  0.000024  0.000434  0.017662  0.000668
  4F   1px       -0.003704 -0.003486 -0.000058 -0.000878  0.002454 -0.001620
  4F   1py       -0.003139  0.003651  0.000059 -0.001012 -0.004620  0.001692
  4F   2pz       -0.007923  0.005333  0.000099  0.005153 -0.068139 -0.001415
  4F   2px       -0.014812 -0.012911 -0.000216  0.008184 -0.012322  0.003434
  4F   2py       -0.011022  0.013521  0.000219  0.005805  0.015089 -0.003585
  4F   1dz2      -0.001568  0.002536  0.000048  0.001253 -0.009548 -0.001801
  4F   1dxz      -0.003939 -0.003309  0.000099  0.003059 -0.002764  0.002351
  4F   1dyz      -0.002637  0.003363  0.000213  0.002107  0.004167 -0.002389
  4F   1dx2y2    -0.001325  0.000316 -0.000772  0.001033  0.000282 -0.000202
  4F   1dxy       0.000157  0.001451  0.000060 -0.000298  0.000661 -0.001032
                     24        25        26        27        28        29   
                  -1.83178  -1.65442  -1.43254  -1.39793  -1.36818  -1.34437
                   2.00000   2.00000   2.00000   2.00000   2.00000   2.00000
                  --------  --------  --------  --------  --------  --------
  0Xe  1s         0.039278  0.098284  0.002327  0.000000  0.000000  0.002171
  0Xe  2s        -0.105360 -0.263312 -0.006225 -0.000000 -0.000001 -0.005670
  0Xe  3s         0.248197  0.630846  0.015191  0.000000  0.000002  0.014417
  0Xe  4s        -0.185269 -0.489628 -0.012269 -0.000001 -0.000002 -0.013499
  0Xe  5s        -0.031939 -0.057401 -0.001324 -0.000001  0.000002  0.002274
  0Xe  6s         0.003941 -0.022220  0.001076  0.000001 -0.000003  0.000751
  0Xe  1pz       -0.004530  0.010485  0.000966  0.000496  0.000228 -0.013450
  0Xe  1px        0.011861  0.007771  0.000516 -0.001204 -0.000553  0.001233
  0Xe  1py        0.013149  0.003305  0.000113  0.001257  0.000577  0.006489
  0Xe  2pz       -0.061430  0.145133  0.014118  0.007211  0.003331 -0.192226
  0Xe  2px        0.160228  0.107041  0.007521 -0.017503 -0.008083  0.017446
  0Xe  2py        0.177720  0.045253  0.001632  0.018274  0.008440  0.092573
  0Xe  3pz        0.140822 -0.327362 -0.030374 -0.016261 -0.007664  0.476369
  0Xe  3px       -0.348900 -0.235385 -0.016432  0.039467  0.018600 -0.041487
  0Xe  3py       -0.389774 -0.096272 -0.003750 -0.041206 -0.019419 -0.227739
  0Xe  4pz       -0.081059  0.127302  0.011490  0.006911  0.003723 -0.261485
  0Xe  4px        0.141463  0.059403  0.006290 -0.016772 -0.009037  0.013113
  0Xe  4py        0.167492  0.006660  0.001490  0.017512  0.009433  0.115756
  0Xe  5pz        0.018025 -0.035313 -0.006846 -0.002917 -0.001565  0.068308
  0Xe  5px       -0.035878 -0.019953 -0.003763  0.007079  0.003797 -0.004031
  0Xe  5py       -0.041479 -0.005176 -0.000902 -0.007391 -0.003964 -0.030819
  0Xe  1dz2       0.215591 -0.175561 -0.050521 -0.008661 -0.220413 -0.090924
  0Xe  1dxz       0.010224 -0.082789 -0.334637 -0.081743  0.287638 -0.012554
  0Xe  1dyz      -0.056325  0.115601 -0.290488 -0.100617 -0.292557  0.060886
  0Xe  1dx2y2    -0.018435 -0.000694 -0.125278  0.450665 -0.024226  0.008883
  0Xe  1dxy      -0.218897 -0.149769  0.022957 -0.024411 -0.126330 -0.012646
  0Xe  2dz2      -0.474999  0.391293  0.114975  0.019673  0.502440  0.213854
  0Xe  2dxz      -0.024220  0.180310  0.761171  0.185878 -0.655689  0.029844
  0Xe  2dyz       0.125032 -0.255441  0.660920  0.228742  0.666890 -0.140766
  0Xe  2dx2y2     0.040196  0.000490  0.284971 -1.024653  0.055256 -0.020562
  0Xe  2dxy       0.476345  0.319299 -0.052725  0.055492  0.287972  0.024759
  0Xe  3dz2       0.047283 -0.018554  0.001413  0.000629  0.018138  0.005903
  0Xe  3dxz       0.005361 -0.005434  0.011236  0.005608 -0.023662 -0.002321
  0Xe  3dyz      -0.012948  0.014914  0.009817  0.006991  0.024082 -0.007587
  0Xe  3dx2y2    -0.003160  0.001188  0.004235 -0.031134  0.001954 -0.001874
  0Xe  3dxy      -0.039699 -0.014767 -0.000427  0.001704  0.010397  0.002351
  0Xe  1f0       -0.020177  0.025594 -0.016090 -0.004740  0.008626 -0.058866
  0Xe  1f+1      -0.024298  0.007276  0.009044  0.005999 -0.005816 -0.033257
  0Xe  1f-1      -0.004609 -0.021613  0.013577 -0.003546  0.008006  0.030373
  0Xe  1f+2       0.001678 -0.001121  0.007125 -0.003586 -0.002493  0.004797
  0Xe  1f-2       0.007301 -0.003351  0.017670  0.005768  0.005496  0.011871
  0Xe  1f+3       0.018629  0.006622 -0.007153  0.019631 -0.000208  0.008637
  0Xe  1f-3      -0.024039 -0.007425 -0.001198  0.015309 -0.001562 -0.012582
  0Xe  2f0        0.037089 -0.048325  0.021129  0.005942 -0.009616  0.076404
  0Xe  2f+1       0.059097  0.000029 -0.010459 -0.007347  0.006690  0.044826
  0Xe  2f-1       0.025316  0.055237 -0.016494  0.004638 -0.008720 -0.036736
  0Xe  2f+2      -0.002213  0.003049 -0.008627  0.003963  0.002186 -0.006098
  0Xe  2f-2      -0.017119  0.004782 -0.023205 -0.007334 -0.006147 -0.016743
  0Xe  2f+3      -0.050203 -0.027310  0.008991 -0.024746  0.000284 -0.013107
  0Xe  2f-3       0.064495  0.031754  0.002014 -0.019578  0.001488  0.019267
  1F   1s         0.184791  0.117235 -0.000198  0.000000  0.000000  0.045458
  1F   2s         0.388255  0.239555 -0.000437  0.000001  0.000000  0.094276
  1F   3s         0.143684  0.161507  0.001787  0.000001  0.000002  0.061395
  1F   1pz        0.007780  0.014071 -0.151438 -0.047439 -0.000399 -0.003035
  1F   1px        0.143891  0.076320 -0.023711  0.115149  0.000970  0.006886
  1F   1py        0.134758  0.067550  0.037068 -0.120217 -0.001013  0.007795
  1F   2pz        0.003120 -0.012983  0.062649  0.018736  0.000188  0.009407
  1F   2px       -0.015015 -0.047016  0.009157 -0.045472 -0.000455 -0.006997
  1F   2py       -0.015614 -0.039911 -0.015956  0.047472  0.000474 -0.010415
  1F   1dz2      -0.010493 -0.008018 -0.002261 -0.000699  0.002058 -0.001873
  1F   1dxz       0.000700  0.003312 -0.016914 -0.004313 -0.002760  0.000219
  1F   1dyz       0.001172  0.001483 -0.015329 -0.005933  0.002659 -0.000561
  1F   1dx2y2     0.001107  0.001740 -0.006417  0.025289  0.000591  0.000151
  1F   1dxy       0.016978  0.017766  0.002164 -0.001493  0.001164  0.005039
  2F   1s         0.045533  0.021992  0.006643 -0.000001 -0.000000 -0.074134
  2F   2s         0.079854  0.037900  0.013552 -0.000001 -0.000001 -0.149521
  2F   3s         0.114054  0.048292  0.007895 -0.000001  0.000000 -0.098562
  2F   1pz       -0.003174 -0.000594  0.022308  0.007050  0.000182 -0.000491
  2F   1px       -0.040789 -0.015370  0.000024 -0.017109 -0.000442  0.029479
  2F   1py       -0.037819 -0.014489 -0.008781  0.017863  0.000461  0.028433
  2F   2pz        0.006067 -0.000154 -0.024844 -0.006902 -0.000100  0.003607
  2F   2px        0.047013  0.020647 -0.001815  0.016751  0.000243 -0.013649
  2F   2py        0.042638  0.019838  0.008067 -0.017489 -0.000254 -0.014498
  2F   1dz2      -0.006322 -0.002303 -0.001130 -0.000256  0.000594  0.003145
  2F   1dxz       0.001246  0.000125 -0.006684 -0.001595 -0.000825  0.001161
  2F   1dyz       0.001390 -0.000494 -0.006034 -0.002188  0.000741  0.000805
  2F   1dx2y2     0.000981  0.000162 -0.002516  0.009337  0.000308  0.000193
  2F   1dxy       0.010460  0.005417  0.001209 -0.000550  0.000330 -0.004749
  3F   1s        -0.080964  0.192516 -0.004936 -0.000000  0.000000 -0.155809
  3F   2s        -0.170467  0.391974 -0.010401 -0.000000 -0.000000 -0.320101
  3F   3s        -0.068546  0.228774 -0.003755 -0.000001  0.000001 -0.188996
  3F   1pz       -0.087000  0.172666 -0.007332  0.000790 -0.027419 -0.055821
  3F   1px       -0.010163  0.029593 -0.061761 -0.001919  0.066550 -0.003067
  3F   1py        0.024601 -0.039797 -0.056267  0.002001 -0.069479  0.019092
  3F   2pz        0.002570 -0.069085  0.003591 -0.000336  0.013288  0.024184
  3F   2px       -0.007238 -0.014870  0.031915  0.000817 -0.032251  0.000411
  3F   2py       -0.007948  0.013021  0.029153 -0.000852  0.033670 -0.009151
  3F   1dz2      -0.003779  0.021716 -0.001345  0.000299 -0.008595 -0.012683
  3F   1dxz       0.000907  0.007378 -0.011351  0.000206  0.011281 -0.002409
  3F   1dyz       0.003132 -0.008827 -0.010312  0.000969 -0.011347  0.006742
  3F   1dx2y2     0.000858 -0.000247 -0.004321 -0.002865 -0.001258  0.000871
  3F   1dxy       0.001240 -0.000601  0.001213  0.000296 -0.004913  0.000864
  4F   1s        -0.028493  0.056251  0.015614  0.000000  0.000000  0.238398
  4F   2s        -0.051355  0.101513  0.031634  0.000001 -0.000000  0.481820
  4F   3s        -0.070527  0.116739  0.019737 -0.000001  0.000000  0.310186
  4F   1pz        0.034492 -0.054729 -0.009543  0.000026  0.007928 -0.125778
  4F   1px        0.005993 -0.008275  0.016137 -0.000064 -0.019243 -0.020656
  4F   1py       -0.007873  0.013674  0.019224  0.000067  0.020090  0.029858
  4F   2pz       -0.032472  0.059346  0.005261  0.000086 -0.007006  0.054669
  4F   2px       -0.009117  0.008812 -0.017160 -0.000210  0.017006  0.008024
  4F   2py        0.004083 -0.014980 -0.018513  0.000218 -0.017754 -0.013889
  4F   1dz2      -0.005922  0.011450  0.000503  0.000016 -0.004603  0.014842
  4F   1dxz      -0.002767  0.003039 -0.006253  0.000231  0.006039  0.004189
  4F   1dyz       0.001255 -0.005491 -0.006548  0.000264 -0.006079 -0.006591
  4F   1dx2y2    -0.000272 -0.000468 -0.002557 -0.001225 -0.000661 -0.000479
  4F   1dxy       0.001177 -0.000252  0.000540  0.000062 -0.002632 -0.001000
                     30        31        32        33        34        35   
                  -1.34223  -1.20716  -1.08053  -0.85245  -0.83822  -0.77052
                   2.00000   0.00000   0.00000   0.00000   0.00000   0.00000
                  --------  --------  --------  --------  --------  --------
  0Xe  1s         0.004702  0.081711 -0.000151 -0.004044 -0.000008  0.112058
  0Xe  2s        -0.011801 -0.220884  0.000768  0.010878  0.000022 -0.302654
  0Xe  3s         0.033842  0.533780  0.001698 -0.027789 -0.000056  0.766442
  0Xe  4s        -0.043353 -0.397052 -0.014063  0.024691  0.000049 -0.649638
  0Xe  5s         0.027862 -0.162134  0.030201 -0.003441 -0.000003 -0.103887
  0Xe  6s         0.014209  0.078226  0.016020  0.007831  0.000009  0.125118
  0Xe  1pz       -0.004552  0.000514  0.001255  0.005049  0.001613  0.001593
  0Xe  1px       -0.011454  0.000964 -0.001179 -0.000001 -0.003904  0.002564
  0Xe  1py       -0.009175  0.000721 -0.001625 -0.002001  0.004073  0.001827
  0Xe  2pz       -0.065038  0.007467  0.018265  0.075641  0.024628  0.026032
  0Xe  2px       -0.163227  0.013382 -0.016351 -0.000091 -0.059609  0.040954
  0Xe  2py       -0.130681  0.009871 -0.022871 -0.030060  0.062195  0.028953
  0Xe  3pz        0.161381 -0.001345 -0.034960 -0.221649 -0.067679 -0.052617
  0Xe  3px        0.400305 -0.016076  0.034425 -0.000185  0.163768 -0.073312
  0Xe  3py        0.319747 -0.014867  0.046774  0.087625 -0.170870 -0.049452
  0Xe  4pz       -0.089056 -0.080383 -0.036818  0.183573  0.044860 -0.032333
  0Xe  4px       -0.196532 -0.102569  0.056518  0.000527 -0.108447 -0.101241
  0Xe  4py       -0.153104 -0.066524  0.068665 -0.072157  0.113145 -0.084218
  0Xe  5pz        0.023083  0.011227  0.004106 -0.026604 -0.010109 -0.020037
  0Xe  5px        0.052590  0.015352 -0.010022  0.000832  0.024481 -0.024872
  0Xe  5py        0.041264  0.010274 -0.011220  0.011346 -0.025543 -0.015916
  0Xe  1dz2      -0.010277  0.149896  0.256703 -0.002686  0.002568 -0.018452
  0Xe  1dxz      -0.021710  0.121162  0.035324  0.082642  0.028770 -0.021355
  0Xe  1dyz       0.042484 -0.127136 -0.086471  0.082674  0.034185 -0.051189
  0Xe  1dx2y2    -0.001667  0.013062 -0.016846  0.033286 -0.155272 -0.010024
  0Xe  1dxy      -0.129566  0.306258 -0.163971 -0.004993  0.008163  0.104023
  0Xe  2dz2       0.018770 -0.347922 -0.637853  0.006455 -0.006434  0.051825
  0Xe  2dxz       0.050835 -0.286254 -0.085990 -0.203375 -0.070343  0.053079
  0Xe  2dyz      -0.096024  0.299176  0.213385 -0.203267 -0.083982  0.126518
  0Xe  2dx2y2     0.004633 -0.031438  0.042253 -0.081881  0.380597  0.024402
  0Xe  2dxy       0.304488 -0.731540  0.414839  0.012120 -0.020090 -0.267202
  0Xe  3dz2      -0.000665 -0.015690 -0.015981  0.006288 -0.000112 -0.001248
  0Xe  3dxz      -0.001189 -0.023401 -0.001046 -0.014415 -0.007188 -0.026436
  0Xe  3dyz      -0.007349  0.018317  0.004503 -0.019856 -0.007206  0.020100
  0Xe  3dx2y2    -0.001020 -0.004115  0.001312 -0.006775  0.035581 -0.005934
  0Xe  3dxy       0.015669 -0.067537  0.014821  0.003492 -0.001594 -0.103424
  0Xe  1f0       -0.010335 -0.012344 -0.014849 -0.084210 -0.024202  0.016201
  0Xe  1f+1       0.022504  0.005040 -0.020490 -0.015327  0.026736 -0.067794
  0Xe  1f-1       0.037635  0.022117 -0.006479  0.004355 -0.021436 -0.082906
  0Xe  1f+2       0.001152 -0.001258  0.000195 -0.001363 -0.007960 -0.032518
  0Xe  1f-2      -0.004183 -0.002557  0.006130  0.102297  0.027968 -0.000915
  0Xe  1f+3      -0.032142 -0.016924  0.015066 -0.029855  0.095071  0.034294
  0Xe  1f-3       0.039761  0.021696 -0.019652 -0.019848  0.078906 -0.038864
  0Xe  2f0        0.011805  0.001908 -0.000142  0.078293  0.021687 -0.016100
  0Xe  2f+1      -0.035322  0.001833  0.002773  0.014062 -0.024052  0.064662
  0Xe  2f-1      -0.053727 -0.001622  0.003772 -0.006738  0.019147  0.082283
  0Xe  2f+2      -0.001635  0.001574  0.000952  0.000305  0.007347  0.025436
  0Xe  2f-2       0.006644  0.001192 -0.001182 -0.092022 -0.025239 -0.001816
  0Xe  2f+3       0.047731  0.002035 -0.001852  0.026674 -0.085602 -0.043212
  0Xe  2f-3      -0.059040 -0.003194  0.002787  0.017901 -0.070956  0.050784
  1F   1s        -0.139977  0.098798 -0.150042  0.002830  0.000003 -0.039938
  1F   2s        -0.291795  0.186903 -0.298848  0.006731  0.000007 -0.092602
  1F   3s        -0.183860  0.299863 -0.376375  0.005831  0.000003  0.046127
  1F   1pz        0.002750 -0.001621  0.007292 -0.652602 -0.192738  0.070906
  1F   1px       -0.022693 -0.030205  0.125970 -0.102599  0.466221  0.358990
  1F   1py       -0.022823 -0.028295  0.117791  0.160238 -0.486712  0.315863
  1F   2pz        0.003279 -0.002177  0.005501  0.324861  0.098112 -0.033282
  1F   2px        0.021794 -0.072642  0.040545  0.050454 -0.237318 -0.203747
  1F   2py        0.019582 -0.068722  0.036665 -0.080353  0.247745 -0.182017
  1F   1dz2       0.008295 -0.009179  0.001634 -0.005671 -0.001611 -0.025273
  1F   1dxz      -0.000294 -0.000103 -0.000944 -0.045869 -0.010761  0.003707
  1F   1dyz      -0.000927  0.002206  0.000319 -0.041137 -0.014450  0.004951
  1F   1dx2y2    -0.000797  0.000867 -0.000377 -0.017457  0.062029  0.003481
  1F   1dxy      -0.012845  0.010508 -0.005673  0.004079 -0.003600  0.040396
  2F   1s         0.245996  0.107455 -0.116397  0.004545  0.000003  0.005332
  2F   2s         0.496145  0.212852 -0.239112  0.009551  0.000007  0.002128
  2F   3s         0.323114  0.166321 -0.167424  0.004447  0.000001  0.029843
  2F   1pz       -0.008733 -0.000749 -0.001888 -0.065112 -0.021733  0.030772
  2F   1px       -0.097889 -0.012521 -0.020552 -0.002405  0.052578  0.038631
  2F   1py       -0.090324 -0.011700 -0.018938  0.023489 -0.054874  0.024860
  2F   2pz        0.004667  0.002241  0.001620  0.036450  0.012983 -0.019740
  2F   2px        0.046498  0.018498  0.005053 -0.000354 -0.031421 -0.006473
  2F   2py        0.042696  0.016834  0.004200 -0.014783  0.032788  0.001591
  2F   1dz2      -0.008668 -0.002283 -0.001537  0.001451  0.000236  0.001098
  2F   1dxz       0.001833  0.000128  0.000170  0.005318  0.001494 -0.002450
  2F   1dyz       0.001518  0.000679  0.000418  0.004582  0.002036 -0.002597
  2F   1dx2y2     0.001347  0.000275  0.000205  0.001948 -0.008688 -0.001072
  2F   1dxy       0.015537  0.002657  0.002054 -0.001408  0.000509 -0.001273
  3F   1s        -0.040548  0.095968  0.140127  0.007186  0.000010 -0.058620
  3F   2s        -0.084004  0.180599  0.277448  0.013630  0.000020 -0.132118
  3F   3s        -0.047221  0.224345  0.287308 -0.008569 -0.000009 -0.065008
  3F   1pz       -0.015043 -0.012699 -0.089607 -0.046923  0.004308  0.312276
  3F   1px       -0.003887 -0.001918 -0.010950  0.123255 -0.010471  0.293180
  3F   1py        0.002214  0.003176  0.024878  0.136576  0.011205  0.157622
  3F   2pz        0.004928 -0.070501 -0.037398  0.031343 -0.002886 -0.173849
  3F   2px        0.006968 -0.008233 -0.008856 -0.067243  0.007029 -0.156844
  3F   2py        0.004729  0.019937  0.006277 -0.076774 -0.007490 -0.081643
  3F   1dz2      -0.003217  0.011604  0.006989 -0.001827  0.000852  0.025633
  3F   1dxz      -0.001596  0.002608  0.002420  0.014037 -0.001390  0.025361
  3F   1dyz       0.000331 -0.004967 -0.003011  0.014476  0.000873  0.007165
  3F   1dx2y2    -0.000210 -0.000559 -0.000082  0.005769  0.001500  0.006430
  3F   1dxy       0.001254 -0.002697  0.000307  0.000514  0.000430 -0.004798
  4F   1s         0.067099  0.115448  0.123002 -0.007429 -0.000006 -0.027984
  4F   2s         0.135430  0.228913  0.251805 -0.014262 -0.000010 -0.066121
  4F   3s         0.086935  0.174192  0.179349 -0.003870 -0.000003 -0.034448
  4F   1pz       -0.034826 -0.017627  0.028802 -0.026358  0.000656 -0.055076
  4F   1px       -0.007205 -0.002712  0.005673 -0.014160 -0.001664  0.042242
  4F   1py        0.006844  0.004361 -0.005931 -0.003163  0.001722  0.062204
  4F   2pz        0.015516  0.029029 -0.000978  0.023735 -0.000683  0.045732
  4F   2px        0.005644  0.005671 -0.002001  0.013356  0.001721 -0.023902
[...]

  |G| =    0.003883435


The revPBE functional is recognized
Active option DFTDOPT                   ...         5   



------------------- 
Dispersion Gradient 
------------------- 
   1  :    0.000000300    0.000000082    0.000000098
   2  :    0.000505112    0.000469381    0.000036505
   3  :   -0.000505593   -0.000469091   -0.000036400
   4  :    0.000103247   -0.000163023    0.000662875
   5  :   -0.000103051    0.000162662   -0.000663076

  |G| =    0.003880496


The revPBE functional is recognized
Active option DFTDOPT                   ...         5   



------------------- 
Dispersion Gradient 
------------------- 
   1  :   -0.000000214   -0.000000056    0.000000044
   2  :    0.000505248    0.000469722    0.000036868
   3  :   -0.000505448   -0.000469333   -0.000036748
   4  :    0.000103210   -0.000162875    0.000663305
   5  :   -0.000102798    0.000162542   -0.000663471

  |G| =    0.003881883


The revPBE functional is recognized
Active option DFTDOPT                   ...         5   



------------------- 
Dispersion Gradient 
------------------- 
   1  :    0.000000218   -0.000000003    0.000000114
   2  :    0.000505274    0.000469394    0.000036172
   3  :   -0.000505067   -0.000469754   -0.000036349
   4  :    0.000103262   -0.000162863    0.000663201
   5  :   -0.000103684    0.000163226   -0.000663135

  |G| =    0.003881716


Dispersion correction Hessian from Numerical Differentiation: 
                  0          1          2          3          4          5    
      0       0.000205   0.000000   0.000000   0.000000   0.000000   0.000000
      1       0.000000   0.000000   0.000000   0.000000   0.000000   0.000000
      2       0.000000   0.000000   0.000000   0.000000   0.000000   0.000000
      3       0.000000   0.000000   0.000000   0.000000   0.000000   0.000000
      4       0.000000   0.000000   0.000000   0.000000   0.000000   0.000000
      5       0.000000   0.000000   0.000000   0.000000   0.000000   0.000000
      6      -0.000059  -0.000022  -0.000004   0.000030   0.000036   0.000003
      7       0.000000   0.000000   0.000000   0.000000   0.000000   0.000000
      8       0.000000   0.000000   0.000000   0.000000   0.000000   0.000000
      9       0.000000   0.000000   0.000000   0.000000   0.000000   0.000000
     10       0.000000   0.000000   0.000000   0.000000   0.000000   0.000000
     11       0.000000   0.000000   0.000000   0.000000   0.000000   0.000000
     12      -0.000043  -0.000005  -0.000007  -0.000003   0.000033   0.000070
     13       0.000000   0.000000   0.000000   0.000000   0.000000   0.000000
     14       0.000000   0.000000   0.000000   0.000000   0.000000   0.000000
                  6          7          8          9         10         11    
      0      -0.000059   0.000000   0.000000   0.000000   0.000000   0.000000
      1      -0.000022   0.000000   0.000000   0.000000   0.000000   0.000000
      2      -0.000004   0.000000   0.000000   0.000000   0.000000   0.000000
      3       0.000030   0.000000   0.000000   0.000000   0.000000   0.000000
      4       0.000036   0.000000   0.000000   0.000000   0.000000   0.000000
      5       0.000003   0.000000   0.000000   0.000000   0.000000   0.000000
      6       0.000067   0.000000   0.000000   0.000000   0.000000   0.000000
      7       0.000000   0.000000   0.000000   0.000000   0.000000   0.000000
      8       0.000000   0.000000   0.000000   0.000000   0.000000   0.000000
      9       0.000000   0.000000   0.000000   0.000000   0.000000   0.000000
     10       0.000000   0.000000   0.000000   0.000000   0.000000   0.000000
     11       0.000000   0.000000   0.000000   0.000000   0.000000   0.000000
     12      -0.000038   0.000042  -0.000040  -0.000005  -0.000001   0.000010
     13       0.000000   0.000000   0.000000   0.000000   0.000000   0.000000
     14       0.000000   0.000000   0.000000   0.000000   0.000000   0.000000
                  12         13         14    
      0      -0.000043   0.000000   0.000000
      1      -0.000005   0.000000   0.000000
      2      -0.000007   0.000000   0.000000
      3      -0.000003   0.000000   0.000000
      4       0.000033   0.000000   0.000000
      5       0.000070   0.000000   0.000000
      6      -0.000038   0.000000   0.000000
      7       0.000042   0.000000   0.000000
      8      -0.000040   0.000000   0.000000
      9      -0.000005   0.000000   0.000000
     10      -0.000001   0.000000   0.000000
     11       0.000010   0.000000   0.000000
     12       0.000089   0.000000   0.000000
     13       0.000000   0.000000   0.000000
     14       0.000000   0.000000   0.000000

done   (      0.2 sec)
gCP correction in the Hessian                    ...  
-----------------
gCP hessian 
from Numerical Differentiation: 
-----------------
                  0          1          2          3          4          5    
      0      -0.001426   0.002124   0.000839  -0.000233  -0.001143  -0.000089
      1       0.002124  -0.001609  -0.000874  -0.001143  -0.000065  -0.000083
      2       0.000839  -0.000874   0.000263  -0.000089  -0.000083   0.000991
      3      -0.000233  -0.001143  -0.000089   0.000179   0.001681   0.000238
      4      -0.001143  -0.000065  -0.000083   0.001681  -0.000047  -0.000042
      5      -0.000089  -0.000083   0.000991   0.000238  -0.000042  -0.000989
      6      -0.000233  -0.001143  -0.000090  -0.000122  -0.000200  -0.000016
      7      -0.001143  -0.000065  -0.000083  -0.000200  -0.000093  -0.000015
      8      -0.000090  -0.000083   0.000991  -0.000016  -0.000015   0.000092
      9       0.000946   0.000081  -0.000330   0.000168  -0.000195   0.000193
     10       0.000081   0.000869   0.000520  -0.000195  -0.000015   0.000304
     11      -0.000330   0.000520  -0.001122   0.000193   0.000304  -0.000010
     12       0.000946   0.000081  -0.000330   0.000008  -0.000143  -0.000327
     13       0.000081   0.000869   0.000520  -0.000143   0.000220  -0.000165
     14      -0.000330   0.000520  -0.001122  -0.000327  -0.000165  -0.000084
                  6          7          8          9         10         11    
      0      -0.000233  -0.001143  -0.000090   0.000946   0.000081  -0.000330
      1      -0.001143  -0.000065  -0.000083   0.000081   0.000869   0.000520
      2      -0.000090  -0.000083   0.000991  -0.000330   0.000520  -0.001122
      3      -0.000122  -0.000200  -0.000016   0.000168  -0.000195   0.000193
      4      -0.000200  -0.000093  -0.000015  -0.000195  -0.000015   0.000304
      5      -0.000016  -0.000015   0.000092   0.000193   0.000304  -0.000010
      6       0.000180   0.001681   0.000239   0.000008  -0.000143  -0.000327
      7       0.001681  -0.000047  -0.000042  -0.000143   0.000219  -0.000165
      8       0.000239  -0.000042  -0.000989  -0.000327  -0.000165  -0.000084
      9       0.000008  -0.000143  -0.000327  -0.001205   0.000243   0.000522
     10      -0.000143   0.000219  -0.000165   0.000243  -0.001145  -0.000750
     11      -0.000327  -0.000165  -0.000084   0.000522  -0.000750   0.001494
     12       0.000168  -0.000195   0.000193   0.000084   0.000014  -0.000058
     13      -0.000195  -0.000015   0.000304   0.000014   0.000071   0.000091
     14       0.000193   0.000304  -0.000009  -0.000058   0.000091  -0.000278
                  12         13         14    
      0       0.000946   0.000081  -0.000330
      1       0.000081   0.000869   0.000520
      2      -0.000330   0.000520  -0.001122
      3       0.000008  -0.000143  -0.000327
      4      -0.000143   0.000220  -0.000165
      5      -0.000327  -0.000165  -0.000084
      6       0.000168  -0.000195   0.000193
      7      -0.000195  -0.000015   0.000304
      8       0.000193   0.000304  -0.000009
      9       0.000084   0.000014  -0.000058
     10       0.000014   0.000071   0.000091
     11      -0.000058   0.000091  -0.000278
     12      -0.001205   0.000243   0.000521
     13       0.000243  -0.001145  -0.000751
     14       0.000521  -0.000751   0.001493

done   (      0.0 sec)
Dipol derivatives                                ... done   (      0.2 sec)

-------
TIMINGS
-------

Total SCF Hessian time: 0 days 0 hours 0 min 25 sec 
                   F(y)            G[Q(x)]           CPSCF         Total
Table01         0.9  0.03         0.5  0.02        11.7  0.46        25.4 
Table01a        0.9  0.03,        0.5, 0.02,       11.7  0.46        25.4 
Table01b        0.9   3.4,        0.5,  1.8,       11.7  46.1        25.4 

Writing the Hessian file to the disk             ... done


Maximum memory used throughout the entire calculation: 182.9 MB

-----------------------
VIBRATIONAL FREQUENCIES
-----------------------

Scaling factor for frequencies =  1.000000000  (already applied!)

   0:         0.00 cm**-1
   1:         0.00 cm**-1
   2:         0.00 cm**-1
   3:         0.00 cm**-1
   4:         0.00 cm**-1
   5:         0.00 cm**-1
   6:       138.34 cm**-1
   7:       152.50 cm**-1
   8:       153.97 cm**-1
   9:       208.83 cm**-1
  10:       258.25 cm**-1
  11:       455.59 cm**-1
  12:       483.80 cm**-1
  13:       549.89 cm**-1
  14:       549.97 cm**-1


------------
NORMAL MODES
------------

These modes are the Cartesian displacements weighted by the diagonal matrix
M(i,i)=1/sqrt(m[i]) where m[i] is the mass of the displaced atom
Thus, these vectors are normalized but *not* orthogonal

                  0          1          2          3          4          5    
      0       0.000000   0.000000   0.000000   0.000000   0.000000   0.000000
      1       0.000000   0.000000   0.000000   0.000000   0.000000   0.000000
      2       0.000000   0.000000   0.000000   0.000000   0.000000   0.000000
      3       0.000000   0.000000   0.000000   0.000000   0.000000   0.000000
      4       0.000000   0.000000   0.000000   0.000000   0.000000   0.000000
      5       0.000000   0.000000   0.000000   0.000000   0.000000   0.000000
      6       0.000000   0.000000   0.000000   0.000000   0.000000   0.000000
      7       0.000000   0.000000   0.000000   0.000000   0.000000   0.000000
      8       0.000000   0.000000   0.000000   0.000000   0.000000   0.000000
      9       0.000000   0.000000   0.000000   0.000000   0.000000   0.000000
     10       0.000000   0.000000   0.000000   0.000000   0.000000   0.000000
     11       0.000000   0.000000   0.000000   0.000000   0.000000   0.000000
     12       0.000000   0.000000   0.000000   0.000000   0.000000   0.000000
     13       0.000000   0.000000   0.000000   0.000000   0.000000   0.000000
     14       0.000000   0.000000   0.000000   0.000000   0.000000   0.000000
                  6          7          8          9         10         11    
      0      -0.018002  -0.090438   0.038245  -0.000116   0.187462  -0.000073
      1      -0.014225  -0.100756  -0.014060  -0.000149  -0.190648  -0.000070
      2      -0.004045   0.016670   0.132108   0.000046  -0.075790   0.000005
      3       0.309067  -0.220199  -0.054231  -0.077635  -0.313248  -0.364744
      4      -0.368640  -0.032160   0.155151   0.115384   0.332777  -0.340150
      5      -0.121137  -0.102302  -0.641519  -0.480642   0.130493  -0.023401
      6       0.308937  -0.220441  -0.054064   0.076958  -0.313272   0.365185
      7      -0.368526  -0.031759   0.155397  -0.115649   0.332841   0.340475
      8      -0.121327  -0.103975  -0.641713   0.479975   0.130479   0.023595
      9      -0.246646   0.533427  -0.077893  -0.364572  -0.334599   0.077210
     10       0.417738   0.380729  -0.106595  -0.339893   0.326087  -0.115705
     11       0.135171   0.045521   0.185133  -0.023582   0.131442   0.480588
     12      -0.246945   0.532256  -0.078134   0.366047  -0.334481  -0.077148
     13       0.417741   0.379537  -0.106779   0.341188   0.325913   0.115862
     14       0.135250   0.045542   0.185066   0.023930   0.131390  -0.480814
                  12         13         14    
      0       0.000101  -0.082585  -0.135784
      1       0.000073  -0.002022  -0.153447
      2       0.000047  -0.196469   0.058769
      3       0.365690   0.175501   0.471872
      4       0.339984   0.147422   0.447034
      5       0.026116   0.054292   0.016611
      6      -0.366356   0.175195   0.471005
      7      -0.340526   0.147100   0.446129
      8      -0.026308   0.054363   0.016800
      9       0.074454   0.110107  -0.002217
     10      -0.117961  -0.140282   0.083655
     11       0.479621   0.624794  -0.219733
     12      -0.074484   0.109961  -0.002225
     13       0.117998  -0.140265   0.083691
     14      -0.479757   0.624397  -0.219843


-----------
IR SPECTRUM
-----------

 Mode    freq (cm**-1)   T**2         TX         TY         TZ
-------------------------------------------------------------------
   6:       138.34    0.102548  ( -0.252186  -0.193234  -0.040137)
   7:       152.50    2.882817  ( -1.080922  -1.289688   0.226119)
   8:       153.97    2.954212  (  0.499685  -0.136627   1.638859)
   9:       208.83    0.000011  ( -0.001893  -0.002580   0.000772)
  10:       258.25   27.944901  (  3.552789  -3.641826  -1.435163)
  11:       455.59    0.000039  ( -0.004474  -0.004330   0.000216)
  12:       483.80    0.000069  (  0.006255   0.005029   0.002161)
  13:       549.89  161.112066  ( -4.912365  -0.095730 -11.703486)
  14:       549.97  161.113695  ( -8.100431  -9.134211   3.473169)

The first frequency considered to be a vibration is 6
The total number of vibrations considered is 9


--------------------------
THERMOCHEMISTRY AT 298.15K
--------------------------

Temperature         ... 298.15 K
Pressure            ... 1.00 atm
Total Mass          ... 207.29 AMU

Throughout the following assumptions are being made:
  (1) The electronic state is orbitally nondegenerate
  (2) There are no thermally accessible electronically excited states
  (3) Hindered rotations indicated by low frequency modes are not
      treated as such but are treated as vibrations and this may
      cause some error
  (4) All equations used are the standard statistical mechanics
      equations for an ideal gas
  (5) All vibrations are strictly harmonic

freq.     138.34  E(vib)   ...       0.42 
freq.     152.50  E(vib)   ...       0.40 
freq.     153.97  E(vib)   ...       0.40 
freq.     208.83  E(vib)   ...       0.34 
freq.     258.25  E(vib)   ...       0.30 
freq.     455.59  E(vib)   ...       0.16 
freq.     483.80  E(vib)   ...       0.15 
freq.     549.89  E(vib)   ...       0.12 
freq.     549.97  E(vib)   ...       0.12 

------------
INNER ENERGY
------------

The inner energy is: U= E(el) + E(ZPE) + E(vib) + E(rot) + E(trans)
    E(el)   - is the total energy from the electronic structure calculation
              = E(kin-el) + E(nuc-el) + E(el-el) + E(nuc-nuc)
    E(ZPE)  - the the zero temperature vibrational energy from the frequency calculation
    E(vib)  - the the finite temperature correction to E(ZPE) due to population
              of excited vibrational states
    E(rot)  - is the rotational thermal energy
    E(trans)- is the translational thermal energy

Summary of contributions to the inner energy U:
Electronic energy                ...   -728.02619574 Eh
Zero point energy                ...      0.00672319 Eh       4.22 kcal/mol
Thermal vibrational correction   ...      0.00383636 Eh       2.41 kcal/mol
Thermal rotational correction    ...      0.00141627 Eh       0.89 kcal/mol
Thermal translational correction ...      0.00141627 Eh       0.89 kcal/mol
-----------------------------------------------------------------------
Total thermal energy                   -728.01280365 Eh


Summary of corrections to the electronic energy:
(perhaps to be used in another calculation)
Total thermal correction                  0.00666890 Eh       4.18 kcal/mol
Non-thermal (ZPE) correction              0.00672319 Eh       4.22 kcal/mol
-----------------------------------------------------------------------
Total correction                          0.01339209 Eh       8.40 kcal/mol


--------
ENTHALPY
--------

The enthalpy is H = U + kB*T
                kB is Boltzmann's constant
Total free energy                 ...   -728.01280365 Eh 
Thermal Enthalpy correction       ...      0.00094421 Eh       0.59 kcal/mol
-----------------------------------------------------------------------
Total Enthalpy                    ...   -728.01185944 Eh

Error (ORCA_SYM): TMoleculeSymmetry::FindPointGroup encountered planar molecule without symmetry plane?!

Note: Only C1 symmetry has been detected, increase convergence thresholds 
      if your molecule has a higher symmetry. Symmetry factor of 1.0 is   
      used for the rotational entropy correction. 
 

Note: Rotational entropy computed according to Herzberg 
Infrared and Raman Spectra, Chapter V,1, Van Nostrand Reinhold, 1945 
Point Group:  C1, Symmetry Number:   1  
Rotational constants in cm-1:     0.110126     0.110069     0.055049 

Vibrational entropy computed according to the QRRHO of S. Grimme
Chem.Eur.J. 2012 18 9955


-------
ENTROPY
-------

The entropy contributions are T*S = T*(S(el)+S(vib)+S(rot)+S(trans))
     S(el)   - electronic entropy
     S(vib)  - vibrational entropy
     S(rot)  - rotational entropy
     S(trans)- translational entropy
The entropies will be listed as mutliplied by the temperature to get
units of energy

Electronic entropy                ...      0.00000000 Eh      0.00 kcal/mol
Vibrational entropy               ...      0.00678165 Eh      4.26 kcal/mol
Rotational entropy                ...      0.01296288 Eh      8.13 kcal/mol
Translational entropy             ...      0.01990364 Eh     12.49 kcal/mol
-----------------------------------------------------------------------
Final entropy term                ...      0.03964817 Eh     24.88 kcal/mol

In case the symmetry of your molecule has not been determined correctly
or in case you have a reason to use a different symmetry number we print 
out the resulting rotational entropy values for sn=1,12 :
 --------------------------------------------------------
|  sn= 1 | S(rot)=       0.01296288 Eh      8.13 kcal/mol|
|  sn= 2 | S(rot)=       0.01230842 Eh      7.72 kcal/mol|
|  sn= 3 | S(rot)=       0.01192559 Eh      7.48 kcal/mol|
|  sn= 4 | S(rot)=       0.01165397 Eh      7.31 kcal/mol|
|  sn= 5 | S(rot)=       0.01144328 Eh      7.18 kcal/mol|
|  sn= 6 | S(rot)=       0.01127113 Eh      7.07 kcal/mol|
|  sn= 7 | S(rot)=       0.01112559 Eh      6.98 kcal/mol|
|  sn= 8 | S(rot)=       0.01099951 Eh      6.90 kcal/mol|
|  sn= 9 | S(rot)=       0.01088830 Eh      6.83 kcal/mol|
|  sn=10 | S(rot)=       0.01078882 Eh      6.77 kcal/mol|
|  sn=11 | S(rot)=       0.01069883 Eh      6.71 kcal/mol|
|  sn=12 | S(rot)=       0.01061668 Eh      6.66 kcal/mol|
 --------------------------------------------------------


-------------------
GIBBS FREE ENERGY
-------------------

The Gibbs free energy is G = H - T*S

Total enthalpy                    ...   -728.01185944 Eh 
Total entropy correction          ...     -0.03964817 Eh    -24.88 kcal/mol
-----------------------------------------------------------------------
Final Gibbs free energy         ...   -728.05150761 Eh

For completeness - the Gibbs free energy minus the electronic energy
G-E(el)                           ...     -0.02531187 Eh    -15.88 kcal/mol


Timings for individual modules:

Sum of individual times         ...      191.464 sec (=   3.191 min)
GTO integral calculation        ...       17.536 sec (=   0.292 min)   9.2 %
SCF iterations                  ...      114.660 sec (=   1.911 min)  59.9 %
SCF Gradient evaluation         ...       32.500 sec (=   0.542 min)  17.0 %
Geometry relaxation             ...        0.399 sec (=   0.007 min)   0.2 %
Analytical frequency calculation...       26.368 sec (=   0.439 min)  13.8 %
                             ****ORCA TERMINATED NORMALLY****
TOTAL RUN TIME: 0 days 0 hours 3 minutes 13 seconds 734 msec
