
                                 *****************
                                 * O   R   C   A *
                                 *****************

           --- An Ab Initio, DFT and Semiempirical electronic structure package ---

                  #######################################################
                  #                        -***-                        #
                  #          Department of theory and spectroscopy      #
                  #               Directorship: Frank Neese             #
                  #        Max Planck Institute fuer Kohlenforschung    #
                  #                Kaiser Wilhelm Platz 1               #
                  #                 D-45470 Muelheim/Ruhr               #
                  #                      Germany                        #
                  #                                                     #
                  #                  All rights reserved                #
                  #                        -***-                        #
                  #######################################################


                         Program Version 4.2.1 -  RELEASE  -


 With contributions from (in alphabetic order):
   Daniel Aravena         : Magnetic Suceptibility
   Michael Atanasov       : Ab Initio Ligand Field Theory (pilot matlab implementation)
   Alexander A. Auer      : GIAO ZORA, VPT2
   Ute Becker             : Parallelization
   Giovanni Bistoni       : ED, misc. LED, open-shell LED, HFLD
   Martin Brehm           : Molecular dynamics
   Dmytro Bykov           : SCF Hessian
   Vijay G. Chilkuri      : MRCI spin determinant printing, contributions to CSF-ICE
   Dipayan Datta          : RHF DLPNO-CCSD density
   Achintya Kumar Dutta   : EOM-CC, STEOM-CC
   Dmitry Ganyushin       : Spin-Orbit,Spin-Spin,Magnetic field MRCI
   Miquel Garcia          : C-PCM Hessian, Gaussian charge scheme
   Yang Guo               : DLPNO-NEVPT2, CIM, IAO-localization
   Andreas Hansen         : Spin unrestricted coupled pair/coupled cluster methods
   Benjamin Helmich-Paris : CASSCF linear response (MC-RPA)
   Lee Huntington         : MR-EOM, pCC
   Robert Izsak           : Overlap fitted RIJCOSX, COSX-SCS-MP3, EOM
   Christian Kollmar      : KDIIS, OOCD, Brueckner-CCSD(T), CCSD density
   Simone Kossmann        : Meta GGA functionals, TD-DFT gradient, OOMP2, MP2 Hessian
   Martin Krupicka        : AUTO-CI
   Lucas Lang             : DCDCAS
   Dagmar Lenk            : GEPOL surface, SMD
   Dimitrios Liakos       : Extrapolation schemes; Compound Job, initial MDCI parallelization
   Dimitrios Manganas     : Further ROCIS development; embedding schemes
   Dimitrios Pantazis     : SARC Basis sets
   Taras Petrenko         : DFT Hessian,TD-DFT gradient, ASA, ECA, R-Raman, ABS, FL, XAS/XES, NRVS
   Peter Pinski           : DLPNO-MP2, DLPNO-MP2 Gradient
   Christoph Reimann      : Effective Core Potentials
   Marius Retegan         : Local ZFS, SOC
   Christoph Riplinger    : Optimizer, TS searches, QM/MM, DLPNO-CCSD(T), (RO)-DLPNO pert. Triples
   Tobias Risthaus        : Range-separated hybrids, TD-DFT gradient, RPA, STAB
   Michael Roemelt        : Original ROCIS implementation
   Masaaki Saitow         : Open-shell DLPNO-CCSD energy and density
   Barbara Sandhoefer     : DKH picture change effects
   Avijit Sen             : IP-ROCIS
   Kantharuban Sivalingam : CASSCF convergence, NEVPT2, FIC-MRCI
   Bernardo de Souza      : ESD, SOC TD-DFT
   Georgi Stoychev        : AutoAux, RI-MP2 NMR
   Willem Van den Heuvel  : Paramagnetic NMR
   Boris Wezisla          : Elementary symmetry handling
   Frank Wennmohs         : Technical directorship


 We gratefully acknowledge several colleagues who have allowed us to
 interface, adapt or use parts of their codes:
   Stefan Grimme, W. Hujo, H. Kruse,             : VdW corrections, initial TS optimization,
                  C. Bannwarth                     DFT functionals, gCP, sTDA/sTD-DF
   Ed Valeev, F. Pavosevic, A. Kumar             : LibInt (2-el integral package), F12 methods
   Garnet Chan, S. Sharma, J. Yang, R. Olivares  : DMRG
   Ulf Ekstrom                                   : XCFun DFT Library
   Mihaly Kallay                                 : mrcc  (arbitrary order and MRCC methods)
   Andreas Klamt, Michael Diedenhofen            : otool_cosmo (COSMO solvation model)
   Jiri Pittner, Ondrej Demel                    : Mk-CCSD
   Frank Weinhold                                : gennbo (NPA and NBO analysis)
   Christopher J. Cramer and Donald G. Truhlar   : smd solvation model
   Lars Goerigk                                  : TD-DFT with DH, B97 family of functionals
   V. Asgeirsson, H. Jonsson                     : NEB implementation
   FAccTs GmbH                                   : IRC, NEB, NEB-TS, Multilevel, MM, QM/MM, CI optimization
   S Lehtola, MJT Oliveira, MAL Marques          : LibXC Library


 Your calculation uses the libint2 library for the computation of 2-el integrals
 For citations please refer to: http://libint.valeyev.net

 Your ORCA version has been built with support for libXC version: 4.2.3
 For citations please refer to: https://tddft.org/programs/libxc/

 This ORCA versions uses:
   CBLAS   interface :  Fast vector & matrix operations
   LAPACKE interface :  Fast linear algebra routines
   SCALAPACK package :  Parallel linear algebra routines


----- Orbital basis set information -----
Your calculation utilizes the basis: 6-311G(2d,p)
   H, Li - Ne  : R. Krishnan, J. S. Binkley, R. Seeger and J. A. Pople, J. Chem. Phys. 72, 650 (1980).
   Na - Ar     : A. D. McLean and G. S. Chandler J. Chem. Phys. 72, 5639, (1980).
   K  - Ca     : J.-P. Blaudeau, M. P. McGrath, L. A. Curtiss and L. Radom, J. Chem. Phys. 107, 5016 (1997).
   Ga - Kr     : L. A. Curtiss, M. P. McGrath, J.-P. Blandeau, N. E. Davis, R. C. Binning and L. Radom, J. Chem. Phys. 103, 6104 (1995).
   Pol./Diff.
   H, Li - Cl  : T. Clark, J. Chandrasekhar and P. v. R. Schleyer, J. Comp. Chem. 4, 294 (1983).
   H - Ne      : M. J. Frisch, J. A. Pople and J. S. Binkley, J. Chem. Phys. 80, 3265 (1984).

================================================================================
                                        WARNINGS
                       Please study these warnings very carefully!
================================================================================


WARNING: Geometry Optimization
  ===> : Switching off AutoStart
         For restart on a previous wavefunction, please use MOREAD

WARNING: Post HF methods need fully converged wavefunctions
  ===> : Setting SCFConvForced true
         You can overwrite this default with %scf ConvForced false 


INFO   : the flag for use of LIBINT has been found!

================================================================================
                                       INPUT FILE
================================================================================
NAME = CH3·.inp
|  1> ! UHF MP2 6-311G(2d,p) Opt Freq NoFrozenCore TightOpt TightSCF Grid4 FinalGrid5 PrintBasis PrintMOs NBO
|  2> %maxcore 3000
|  3> 
|  4> *xyz 0 2
|  5> C        0.000000000      0.000000000      0.000000000
|  6> H        1.071911000      0.000000000      0.000000000
|  7> H       -0.535955000      0.928302000      0.000000000
|  8> H       -0.535955000     -0.928302000      0.000000000
|  9> *
| 10> 
| 11> %pal
| 12>  nprocs 12
| 13> end
| 14> 
| 15>                          ****END OF INPUT****
================================================================================

                       *****************************
                       * Geometry Optimization Run *
                       *****************************

Geometry optimization settings:
Update method            Update   .... BFGS
Choice of coordinates    CoordSys .... Z-matrix Internals
Initial Hessian          InHess   .... Almoef's Model

Convergence Tolerances:
Energy Change            TolE     ....  1.0000e-06 Eh
Max. Gradient            TolMAXG  ....  1.0000e-04 Eh/bohr
RMS Gradient             TolRMSG  ....  3.0000e-05 Eh/bohr
Max. Displacement        TolMAXD  ....  1.0000e-03 bohr
RMS Displacement         TolRMSD  ....  6.0000e-04 bohr
Strict Convergence                ....  False
------------------------------------------------------------------------------
                        ORCA OPTIMIZATION COORDINATE SETUP
------------------------------------------------------------------------------

The optimization will be done in new redundant internal coordinates
Making redundant internal coordinates   ...  (new redundants) done
Evaluating the initial hessian          ...  (Almloef) done
Evaluating the coordinates              ...  done
Calculating the B-matrix                .... done
Calculating the G-matrix                .... done
Diagonalizing the G-matrix              .... done
The first mode is                       ....    1
The number of degrees of freedom        ....    6

    -----------------------------------------------------------------
                    Redundant Internal Coordinates


    -----------------------------------------------------------------
         Definition                    Initial Value    Approx d2E/dq
    -----------------------------------------------------------------
      1. B(H   1,C   0)                  1.0719         0.384842   
      2. B(H   2,C   0)                  1.0719         0.384843   
      3. B(H   3,C   0)                  1.0719         0.384843   
      4. A(H   1,C   0,H   3)          120.0000         0.297003   
      5. A(H   2,C   0,H   3)          120.0000         0.297003   
      6. A(H   1,C   0,H   2)          120.0000         0.297003   
      7. I(H   1,H   3,H   2,C   0)      0.0000         0.023978   
    -----------------------------------------------------------------

Number of atoms                         .... 4
Number of degrees of freedom            .... 7

         *************************************************************
         *                GEOMETRY OPTIMIZATION CYCLE   1            *
         *************************************************************
---------------------------------
CARTESIAN COORDINATES (ANGSTROEM)
---------------------------------
  C      0.000000    0.000000    0.000000
  H      1.071911    0.000000    0.000000
  H     -0.535955    0.928302    0.000000
  H     -0.535955   -0.928302    0.000000

----------------------------
CARTESIAN COORDINATES (A.U.)
----------------------------
  NO LB      ZA    FRAG     MASS         X           Y           Z
   0 C     6.0000    0    12.011    0.000000    0.000000    0.000000
   1 H     1.0000    0     1.008    2.025618    0.000000    0.000000
   2 H     1.0000    0     1.008   -1.012808    1.754237    0.000000
   3 H     1.0000    0     1.008   -1.012808   -1.754237    0.000000

--------------------------------
INTERNAL COORDINATES (ANGSTROEM)
--------------------------------
 C      0   0   0     0.000000000000     0.00000000     0.00000000
 H      1   0   0     1.071911000000     0.00000000     0.00000000
 H      1   2   0     1.071910614384   119.99998104     0.00000000
 H      1   2   3     1.071910614384   119.99998104   180.00000000

---------------------------
INTERNAL COORDINATES (A.U.)
---------------------------
 C      0   0   0     0.000000000000     0.00000000     0.00000000
 H      1   0   0     2.025618229938     0.00000000     0.00000000
 H      1   2   0     2.025617501229   119.99998104     0.00000000
 H      1   2   3     2.025617501229   119.99998104   180.00000000

---------------------
BASIS SET INFORMATION
---------------------
There are 2 groups of distinct atoms

 Group   1 Type C   : 11s5p2d contracted to 4s3p2d pattern {6311/311/11}
 Group   2 Type H   : 5s1p contracted to 3s1p pattern {311/1}

Atom   0C    basis set group =>   1
Atom   1H    basis set group =>   2
Atom   2H    basis set group =>   2
Atom   3H    basis set group =>   2

-------------------------
BASIS SET IN INPUT FORMAT
-------------------------

 # Basis set for element : H 
 NewGTO H 
 S 3 
   1      33.8650000000      0.0254938145
   2       5.0947900000      0.1903731086
   3       1.1587900000      0.8521614860
 S 1 
   1       0.3258400000      1.0000000000
 S 1 
   1       0.1027410000      1.0000000000
 P 1 
   1       0.7500000000      1.0000000000
  end;

 # Basis set for element : C 
 NewGTO C 
 S 6 
   1    4563.2400000000      0.0019666502
   2     682.0240000000      0.0152306019
   3     154.9730000000      0.0761269097
   4      44.4553000000      0.2608010331
   5      13.0290000000      0.6164620782
   6       1.8277300000      0.2210060280
 S 3 
   1      20.9642000000      0.1146600807
   2       4.8033100000      0.9199996477
   3       1.4593300000     -0.0030306821
 P 3 
   1      20.9642000000      0.0402486927
   2       4.8033100000      0.2375939567
   3       1.4593300000      0.8158538515
 S 1 
   1       0.4834560000      1.0000000000
 P 1 
   1       0.4834560000      1.0000000000
 S 1 
   1       0.1455850000      1.0000000000
 P 1 
   1       0.1455850000      1.0000000000
 D 1 
   1       1.2520000000      1.0000000000
 D 1 
   1       0.3130000000      1.0000000000
  end;



           ************************************************************
           *        Program running with 12 parallel MPI-processes    *
           *              working on a common directory               *
           ************************************************************
------------------------------------------------------------------------------
                           ORCA GTO INTEGRAL CALCULATION
------------------------------------------------------------------------------

                         BASIS SET STATISTICS AND STARTUP INFO

 # of primitive gaussian shells          ...   36
 # of primitive gaussian functions       ...   60
 # of contracted shells                  ...   21
 # of contracted basis functions         ...   41
 Highest angular momentum                ...    2
 Maximum contraction depth               ...    6
 Integral package used                   ... LIBINT
 Integral threshhold            Thresh   ...  2.500e-11
 Primitive cut-off              TCut     ...  2.500e-12


------------------------------ INTEGRAL EVALUATION ----------------------------


 * One electron integrals 
 Pre-screening matrix                    ... done
 Shell pair data                         ... done (   0.000 sec)



           ************************************************************
           *        Program running with 12 parallel MPI-processes    *
           *              working on a common directory               *
           ************************************************************
-------------------------------------------------------------------------------
                                 ORCA SCF
-------------------------------------------------------------------------------

------------
SCF SETTINGS
------------
Hamiltonian:
 Ab initio Hamiltonian  Method          .... Hartree-Fock(GTOs)


General Settings:
 Integral files         IntName         .... CH3·
 Hartree-Fock type      HFTyp           .... UHF
 Total Charge           Charge          ....    0
 Multiplicity           Mult            ....    2
 Number of Electrons    NEL             ....    9
 Basis Dimension        Dim             ....   41
 Nuclear Repulsion      ENuc            ....      9.7412509664 Eh

Convergence Acceleration:
 DIIS                   CNVDIIS         .... on
   Start iteration      DIISMaxIt       ....    12
   Startup error        DIISStart       ....  0.200000
   # of expansion vecs  DIISMaxEq       ....     5
   Bias factor          DIISBfac        ....   1.050
   Max. coefficient     DIISMaxC        ....  10.000
 Newton-Raphson         CNVNR           .... off
 SOSCF                  CNVSOSCF        .... off
 Level Shifting         CNVShift        .... on
   Level shift para.    LevelShift      ....    0.2500
   Turn off err/grad.   ShiftErr        ....    0.0010
 Zerner damping         CNVZerner       .... off
 Static damping         CNVDamp         .... on
   Fraction old density DampFac         ....    0.7000
   Max. Damping (<1)    DampMax         ....    0.9800
   Min. Damping (>=0)   DampMin         ....    0.0000
   Turn off err/grad.   DampErr         ....    0.1000
 Fernandez-Rico         CNVRico         .... off

SCF Procedure:
 Maximum # iterations   MaxIter         ....   125
 SCF integral mode      SCFMode         .... Direct
   Integral package                     .... LIBINT
 Reset frequency        DirectResetFreq ....    20
 Integral Threshold     Thresh          ....  2.500e-11 Eh
 Primitive CutOff       TCut            ....  2.500e-12 Eh

Convergence Tolerance:
 Convergence Check Mode ConvCheckMode   .... Total+1el-Energy
 Convergence forced     ConvForced      .... 1
 Energy Change          TolE            ....  1.000e-08 Eh
 1-El. energy change                    ....  1.000e-05 Eh
 DIIS Error             TolErr          ....  5.000e-07


Diagonalization of the overlap matrix:
Smallest eigenvalue                        ... 1.349e-02
Time for diagonalization                   ...    0.003 sec
Threshold for overlap eigenvalues          ... 1.000e-08
Number of eigenvalues below threshold      ... 0
Time for construction of square roots      ...    0.004 sec
Total time needed                          ...    0.008 sec

-------------------
DFT GRID GENERATION
-------------------

General Integration Accuracy     IntAcc      ...  4.670
Radial Grid Type                 RadialGrid  ... Gauss-Chebyshev
Angular Grid (max. acc.)         AngularGrid ... Lebedev-302
Angular grid pruning method      GridPruning ... 3 (G Style)
Weight generation scheme         WeightScheme... Becke
Basis function cutoff            BFCut       ...    1.0000e-11
Integration weight cutoff        WCut        ...    1.0000e-14
Grids for H and He will be reduced by one unit

# of grid points (after initial pruning)     ...  16394 (   0.0 sec)
# of grid points (after weights+screening)   ...  16145 (   0.0 sec)
nearest neighbour list constructed           ...    0.0 sec
Grid point re-assignment to atoms done       ...    0.0 sec
Grid point division into batches done        ...    0.1 sec
Reduced shell lists constructed in    0.1 sec

Total number of grid points                  ...    16145
Total number of batches                      ...      253
Average number of points per batch           ...       63
Average number of grid points per atom       ...     4036
Average number of shells per batch           ...    20.09 (95.65%)
Average number of basis functions per batch  ...    39.22 (95.65%)
Average number of large shells per batch     ...    19.57 (97.40%)
Average number of large basis fcns per batch ...    38.52 (98.23%)
Maximum spatial batch extension              ...   2.89,  2.57, 19.60 au
Average spatial batch extension              ...   0.12,  0.13,  0.26 au

Time for grid setup =    0.198 sec

------------------------------
INITIAL GUESS: MODEL POTENTIAL
------------------------------
Loading Hartree-Fock densities                     ... done
Calculating cut-offs                               ... done
Setting up the integral package                    ... done
Initializing the effective Hamiltonian             ... done
Starting the Coulomb interaction                   ... done (   0.0 sec)
Reading the grid                                   ... done
Mapping shells                                     ... done
Starting the XC term evaluation                    ... done (   0.0 sec)
Transforming the Hamiltonian                       ... done (   0.0 sec)
Diagonalizing the Hamiltonian                      ... done (   0.0 sec)
Back transforming the eigenvectors                 ... done (   0.0 sec)
Now organizing SCF variables                       ... done
                      ------------------
                      INITIAL GUESS DONE (   0.3 sec)
                      ------------------
--------------
SCF ITERATIONS
--------------
ITER       Energy         Delta-E        Max-DP      RMS-DP      [F,P]     Damp
               ***  Starting incremental Fock matrix formation  ***
  0    -39.5133640071   0.000000000000 0.02695833  0.00093576  0.2346402 0.7000
  1    -39.5336371607  -0.020273153562 0.01981489  0.00072898  0.1570909 0.7000
                               ***Turning on DIIS***
  2    -39.5465575418  -0.012920381146 0.04186588  0.00159004  0.0982801 0.0000
  3    -39.5166877588   0.029869783011 0.01329776  0.00051066  0.0257178 0.0000
  4    -39.5702781986  -0.053590439742 0.00512504  0.00022350  0.0042152 0.0000
  5    -39.5746008005  -0.004322601977 0.00341706  0.00015885  0.0022963 0.0000
  6    -39.5747425629  -0.000141762411 0.00195836  0.00009579  0.0012311 0.0000
  7    -39.5743723822   0.000370180741 0.00141066  0.00007536  0.0005965 0.0000
  8    -39.5742003397   0.000172042497 0.00045734  0.00002944  0.0001690 0.0000
  9    -39.5741677986   0.000032541153 0.00013962  0.00000927  0.0000386 0.0000
 10    -39.5741595243   0.000008274211 0.00006981  0.00000424  0.0000109 0.0000
 11    -39.5741602375  -0.000000713136 0.00002807  0.00000162  0.0000026 0.0000
                            ***DIIS convergence achieved***

               *****************************************************
               *                     SUCCESS                       *
               *           SCF CONVERGED AFTER  12 CYCLES          *
               *****************************************************


----------------
TOTAL SCF ENERGY
----------------

Total Energy       :          -39.57416032 Eh           -1076.86765 eV

Components:
Nuclear Repulsion  :            9.74125097 Eh             265.07291 eV
Electronic Energy  :          -49.31541129 Eh           -1341.94056 eV
One Electron Energy:          -71.70997696 Eh           -1951.32768 eV
Two Electron Energy:           22.39456567 Eh             609.38711 eV

Virial components:
Potential Energy   :          -79.15224636 Eh           -2153.84212 eV
Kinetic Energy     :           39.57808603 Eh            1076.97447 eV
Virial Ratio       :            1.99990081


---------------
SCF CONVERGENCE
---------------

  Last Energy change         ...   -8.3489e-08  Tolerance :   1.0000e-08
  Last MAX-Density change    ...    1.1160e-05  Tolerance :   1.0000e-07
  Last RMS-Density change    ...    6.5275e-07  Tolerance :   5.0000e-09
  Last DIIS Error            ...    8.4337e-07  Tolerance :   5.0000e-07

             **** THE GBW FILE WAS UPDATED (CH3·.gbw) ****
             **** DENSITY FILE WAS UPDATED (CH3·.scfp) ****
             **** ENERGY FILE WAS UPDATED (CH3·.en.tmp) ****
----------------------
UHF SPIN CONTAMINATION
----------------------

Expectation value of <S**2>     :     0.761612
Ideal value S*(S+1) for S=0.5   :     0.750000
Deviation                       :     0.011612

             **** THE GBW FILE WAS UPDATED (CH3·.gbw) ****
             **** DENSITY FILE WAS UPDATED (CH3·.scfp) ****
----------------
ORBITAL ENERGIES
----------------
                 SPIN UP ORBITALS
  NO   OCC          E(Eh)            E(eV) 
   0   1.0000     -11.228640      -305.5468 
   1   1.0000      -0.948891       -25.8206 
   2   1.0000      -0.581496       -15.8233 
   3   1.0000      -0.581495       -15.8233 
   4   1.0000      -0.384650       -10.4669 
   5   0.0000       0.163660         4.4534 
   6   0.0000       0.230083         6.2609 
   7   0.0000       0.230083         6.2609 
   8   0.0000       0.444851        12.1050 
   9   0.0000       0.444851        12.1050 
  10   0.0000       0.509227        13.8568 
  11   0.0000       0.576520        15.6879 
  12   0.0000       0.785051        21.3623 
  13   0.0000       0.785051        21.3623 
  14   0.0000       0.792631        21.5686 
  15   0.0000       0.792631        21.5686 
  16   0.0000       0.887925        24.1617 
  17   0.0000       1.073091        29.2003 
  18   0.0000       1.159113        31.5411 
  19   0.0000       1.159113        31.5411 
  20   0.0000       1.668219        45.3946 
  21   0.0000       1.916544        52.1518 
  22   0.0000       2.042904        55.5902 
  23   0.0000       2.042904        55.5903 
  24   0.0000       2.315436        63.0062 
  25   0.0000       2.315436        63.0062 
  26   0.0000       2.360196        64.2242 
  27   0.0000       2.571864        69.9840 
  28   0.0000       2.571864        69.9840 
  29   0.0000       2.800755        76.2124 
  30   0.0000       2.800755        76.2124 
  31   0.0000       3.044481        82.8446 
  32   0.0000       3.047243        82.9197 
  33   0.0000       3.430703        93.3542 
  34   0.0000       3.430703        93.3542 
  35   0.0000       3.585355        97.5625 
  36   0.0000       3.585355        97.5625 
  37   0.0000       3.951226       107.5183 
  38   0.0000       4.530683       123.2862 
  39   0.0000       4.530683       123.2862 
  40   0.0000      25.031984       681.1549 

                 SPIN DOWN ORBITALS
  NO   OCC          E(Eh)            E(eV) 
   0   1.0000     -11.205021      -304.9041 
   1   1.0000      -0.857214       -23.3260 
   2   1.0000      -0.566719       -15.4212 
   3   1.0000      -0.566719       -15.4212 
   4   0.0000       0.136175         3.7055 
   5   0.0000       0.175433         4.7738 
   6   0.0000       0.234945         6.3932 
   7   0.0000       0.234945         6.3932 
   8   0.0000       0.448866        12.2143 
   9   0.0000       0.448867        12.2143 
  10   0.0000       0.562425        15.3044 
  11   0.0000       0.711822        19.3697 
  12   0.0000       0.808282        21.9945 
  13   0.0000       0.808282        21.9945 
  14   0.0000       0.848641        23.0927 
  15   0.0000       0.848641        23.0927 
  16   0.0000       0.922512        25.1028 
  17   0.0000       1.117178        30.4000 
  18   0.0000       1.169441        31.8221 
  19   0.0000       1.169441        31.8221 
  20   0.0000       1.663361        45.2623 
  21   0.0000       1.931955        52.5712 
  22   0.0000       2.051264        55.8177 
  23   0.0000       2.051265        55.8178 
  24   0.0000       2.311140        62.8893 
  25   0.0000       2.311140        62.8893 
  26   0.0000       2.369563        64.4791 
  27   0.0000       2.576891        70.1208 
  28   0.0000       2.576892        70.1208 
  29   0.0000       2.800247        76.1986 
  30   0.0000       2.800247        76.1986 
  31   0.0000       3.063132        83.3520 
  32   0.0000       3.131854        85.2221 
  33   0.0000       3.452416        93.9450 
  34   0.0000       3.452416        93.9450 
  35   0.0000       3.655936        99.4831 
  36   0.0000       3.655936        99.4831 
  37   0.0000       4.010418       109.1290 
  38   0.0000       4.548102       123.7602 
  39   0.0000       4.548103       123.7602 
  40   0.0000      25.048486       681.6039 
------------------
MOLECULAR ORBITALS
------------------
                      0         1         2         3         4         5   
                 -11.22864  -0.94889  -0.58150  -0.58150  -0.38465   0.16366
                   1.00000   1.00000   1.00000   1.00000   1.00000   0.00000
                  --------  --------  --------  --------  --------  --------
  0C   1s         0.562896 -0.108253  0.000000  0.000000  0.000000 -0.049448
  0C   2s         0.466459 -0.179621  0.000000  0.000000 -0.000000 -0.080151
  0C   1pz       -0.000000  0.000000  0.000000 -0.000000 -0.259272 -0.000000
  0C   1px        0.000000 -0.000000  0.000000 -0.199601  0.000000  0.000000
  0C   1py       -0.000000 -0.000000  0.199601  0.000000  0.000000 -0.000000
  0C   3s         0.005965  0.462677  0.000000 -0.000000  0.000000  0.097334
  0C   2pz        0.000000  0.000000  0.000000 -0.000000 -0.430197 -0.000000
  0C   2px       -0.000000 -0.000000  0.000000 -0.305786  0.000000  0.000000
  0C   2py        0.000000  0.000000  0.305786  0.000000  0.000000  0.000000
  0C   4s        -0.000896  0.325629 -0.000000 -0.000000  0.000000  2.021974
  0C   3pz        0.000000 -0.000000  0.000000 -0.000000 -0.491601  0.000000
  0C   3px       -0.000000 -0.000000  0.000000 -0.204019  0.000000  0.000000
  0C   3py        0.000000  0.000000  0.204019  0.000000  0.000000  0.000000
  0C   1dz2       0.000488 -0.001709  0.000000 -0.000000 -0.000000  0.005930
  0C   1dxz       0.000000 -0.000000 -0.000000  0.000000  0.000000  0.000000
  0C   1dyz       0.000000 -0.000000 -0.000000  0.000000  0.000000  0.000000
  0C   1dx2y2    -0.000000 -0.000000  0.000000 -0.016513  0.000000 -0.000000
  0C   1dxy      -0.000000 -0.000000 -0.016513 -0.000000 -0.000000 -0.000000
  0C   2dz2      -0.000018  0.016250  0.000000  0.000000  0.000000 -0.015073
  0C   2dxz      -0.000000  0.000000 -0.000000 -0.000000 -0.000000 -0.000000
  0C   2dyz      -0.000000  0.000000  0.000000 -0.000000  0.000000 -0.000000
  0C   2dx2y2    -0.000000  0.000000  0.000000 -0.018112  0.000000 -0.000000
  0C   2dxy      -0.000000 -0.000000 -0.018112 -0.000000  0.000000 -0.000000
  1H   1s         0.000385  0.088481  0.000000 -0.164766 -0.000000 -0.023159
  1H   2s        -0.000255  0.115895  0.000000 -0.242051 -0.000000  0.020182
  1H   3s         0.000338  0.000946  0.000000 -0.076310 -0.000000 -0.992731
  1H   1pz        0.000000  0.000000 -0.000000  0.000000 -0.018663 -0.000000
  1H   1px        0.000123 -0.020928 -0.000000  0.023887  0.000000  0.000357
  1H   1py       -0.000000  0.000000  0.009375  0.000000  0.000000  0.000000
  2H   1s         0.000385  0.088481  0.142692  0.082383 -0.000000 -0.023159
  2H   2s        -0.000255  0.115895  0.209622  0.121026  0.000000  0.020182
  2H   3s         0.000338  0.000946  0.066086  0.038155 -0.000000 -0.992731
  2H   1pz       -0.000000  0.000000 -0.000000 -0.000000 -0.018663 -0.000000
  2H   1px       -0.000061  0.010464  0.014403 -0.001059 -0.000000 -0.000178
  2H   1py        0.000106 -0.018124 -0.015572 -0.014403 -0.000000  0.000309
  3H   1s         0.000385  0.088481 -0.142692  0.082383 -0.000000 -0.023159
  3H   2s        -0.000255  0.115895 -0.209622  0.121026  0.000000  0.020182
  3H   3s         0.000338  0.000946 -0.066086  0.038155  0.000000 -0.992731
  3H   1pz       -0.000000  0.000000  0.000000 -0.000000 -0.018663 -0.000000
  3H   1px       -0.000061  0.010464 -0.014403 -0.001059  0.000000 -0.000178
  3H   1py       -0.000106  0.018124 -0.015572  0.014403  0.000000 -0.000309
                      6         7         8         9        10        11   
                   0.23008   0.23008   0.44485   0.44485   0.50923   0.57652
                   0.00000   0.00000   0.00000   0.00000   0.00000   0.00000
                  --------  --------  --------  --------  --------  --------
  0C   1s         0.000000  0.000000 -0.000000 -0.000000  0.022943  0.000000
  0C   2s         0.000000  0.000000 -0.000000 -0.000000  0.041141 -0.000000
  0C   1pz       -0.000000 -0.000000  0.000000  0.000000 -0.000000 -0.213263
  0C   1px        0.000000  0.131145  0.006565 -0.000000 -0.000000 -0.000000
  0C   1py        0.131145 -0.000000  0.000000  0.006565  0.000000 -0.000000
  0C   3s        -0.000000  0.000000  0.000000  0.000000  0.035738 -0.000000
  0C   2pz        0.000000 -0.000000  0.000000  0.000000 -0.000000 -0.907759
  0C   2px        0.000000  0.077127 -0.103526  0.000000  0.000000 -0.000000
  0C   2py        0.077126 -0.000000 -0.000000 -0.103527 -0.000000 -0.000000
  0C   4s        -0.000000 -0.000001  0.000003 -0.000000 -1.799724  0.000000
  0C   3pz       -0.000000  0.000000 -0.000000 -0.000000  0.000000  1.192126
  0C   3px        0.000001  1.185680 -2.115520  0.000000 -0.000002 -0.000000
  0C   3py        1.185681 -0.000001 -0.000000 -2.115523  0.000000 -0.000000
  0C   1dz2       0.000000  0.000000  0.000000 -0.000000 -0.021861  0.000000
  0C   1dxz       0.000000 -0.000000 -0.000000 -0.000000  0.000000  0.000000
  0C   1dyz       0.000000  0.000000 -0.000000 -0.000000  0.000000  0.000000
  0C   1dx2y2    -0.000000 -0.009863  0.022603 -0.000000  0.000000  0.000000
  0C   1dxy       0.009863 -0.000000 -0.000000 -0.022603  0.000000 -0.000000
  0C   2dz2      -0.000000 -0.000000 -0.000000  0.000000 -0.147082  0.000000
  0C   2dxz      -0.000000  0.000000  0.000000 -0.000000 -0.000000  0.000000
  0C   2dyz      -0.000000 -0.000000  0.000000  0.000000 -0.000000 -0.000000
  0C   2dx2y2     0.000000  0.014686 -0.240977  0.000000  0.000000 -0.000000
  0C   2dxy      -0.014686  0.000000  0.000000  0.240977  0.000000 -0.000000
  1H   1s        -0.000000 -0.013152  0.049907 -0.000000  0.064228 -0.000000
  1H   2s         0.000000  0.148668  1.637394 -0.000000  0.979108  0.000000
  1H   3s        -0.000002 -2.234200  0.306957 -0.000000 -0.092131  0.000000
  1H   1pz       -0.000000 -0.000000  0.000000 -0.000000 -0.000000 -0.028748
  1H   1px       -0.000000 -0.022678 -0.101088  0.000000 -0.017896  0.000000
  1H   1py        0.005881 -0.000000 -0.000000 -0.060990  0.000000 -0.000000
  2H   1s        -0.011390  0.006576 -0.024954  0.043221  0.064228 -0.000000
  2H   2s         0.128751 -0.074334 -0.818699  1.418026  0.979107 -0.000000
  2H   3s        -1.934873  1.117102 -0.153479  0.265836 -0.092131  0.000000
  2H   1pz       -0.000000  0.000000  0.000000  0.000000 -0.000000 -0.028748
  2H   1px        0.012366 -0.001259 -0.071014  0.017363  0.008948 -0.000000
  2H   1py       -0.015539  0.012366  0.017363 -0.091064 -0.015498 -0.000000
  3H   1s         0.011390  0.006576 -0.024954 -0.043221  0.064228 -0.000000
  3H   2s        -0.128751 -0.074334 -0.818699 -1.418026  0.979107 -0.000000
  3H   3s         1.934875  1.117099 -0.153479 -0.265835 -0.092131  0.000000
  3H   1pz       -0.000000 -0.000000  0.000000  0.000000 -0.000000 -0.028748
  3H   1px       -0.012366 -0.001259 -0.071014 -0.017363  0.008948 -0.000000
  3H   1py       -0.015539 -0.012366 -0.017363 -0.091064  0.015498 -0.000000
                     12        13        14        15        16        17   
                   0.78505   0.78505   0.79263   0.79263   0.88793   1.07309
                   0.00000   0.00000   0.00000   0.00000   0.00000   0.00000
                  --------  --------  --------  --------  --------  --------
  0C   1s        -0.000000  0.000000 -0.000000 -0.000000  0.118224  0.016561
  0C   2s        -0.000000  0.000000 -0.000000 -0.000000  0.248085  0.038111
  0C   1pz       -0.000000 -0.000000 -0.000000 -0.000000  0.000000  0.000000
  0C   1px        0.000000  0.000000  0.257866 -0.000000  0.000000 -0.000000
  0C   1py       -0.000000 -0.000000  0.000000  0.257866  0.000000 -0.000000
  0C   3s         0.000000 -0.000000  0.000001  0.000000 -1.900113  0.082972
  0C   2pz       -0.000000 -0.000000 -0.000000 -0.000000  0.000000  0.000000
  0C   2px        0.000000  0.000000  0.817666 -0.000000 -0.000000 -0.000000
  0C   2py       -0.000000 -0.000000  0.000000  0.817666  0.000000 -0.000000
  0C   4s        -0.000000  0.000000 -0.000001 -0.000000  4.281064 -3.048739
  0C   3pz        0.000000  0.000000  0.000000  0.000000 -0.000000 -0.000000
  0C   3px       -0.000000 -0.000000 -2.269270  0.000000 -0.000001 -0.000002
  0C   3py        0.000000  0.000000 -0.000000 -2.269271 -0.000000 -0.000000
  0C   1dz2       0.000000 -0.000000 -0.000000  0.000000 -0.024108 -0.007196
  0C   1dxz      -0.000000  0.005739 -0.000000  0.000000  0.000000  0.000000
  0C   1dyz      -0.005739 -0.000000  0.000000 -0.000000 -0.000000 -0.000000
  0C   1dx2y2    -0.000000  0.000000 -0.006655  0.000000 -0.000000  0.000000
  0C   1dxy      -0.000000 -0.000000  0.000000  0.006655 -0.000000  0.000000
  0C   2dz2       0.000000 -0.000000 -0.000000  0.000000 -0.250537  1.511133
  0C   2dxz       0.000000 -0.972170  0.000000 -0.000000  0.000000 -0.000000
  0C   2dyz       0.972170  0.000000 -0.000000  0.000000  0.000000  0.000000
  0C   2dx2y2    -0.000000  0.000000 -0.611142  0.000000 -0.000001 -0.000001
  0C   2dxy      -0.000000 -0.000000  0.000000  0.611142 -0.000000  0.000000
  1H   1s        -0.000000  0.000000 -0.062195  0.000000  0.038943 -0.012019
  1H   2s         0.000000 -0.000000  0.154275 -0.000000 -0.288803  1.504445
  1H   3s         0.000000  0.000000  1.798169 -0.000000 -0.916998  0.123335
  1H   1pz        0.000000 -0.038714  0.000000 -0.000000 -0.000000  0.000000
  1H   1px       -0.000000  0.000000 -0.137701  0.000000  0.160172 -0.067381
  1H   1py       -0.000000 -0.000000  0.000000  0.008606  0.000000 -0.000000
  2H   1s         0.000000  0.000000  0.031097 -0.053862  0.038943 -0.012019
  2H   2s        -0.000000 -0.000000 -0.077137  0.133606 -0.288805  1.504443
  2H   3s        -0.000000 -0.000000 -0.899084  1.557261 -0.917000  0.123335
  2H   1pz        0.033527  0.019357 -0.000000  0.000000  0.000000 -0.000000
  2H   1px       -0.000000 -0.000000 -0.027971  0.063353 -0.080086  0.033690
  2H   1py        0.000000  0.000000  0.063353 -0.101124  0.138714 -0.058354
  3H   1s        -0.000000 -0.000000  0.031097  0.053862  0.038943 -0.012019
  3H   2s         0.000000  0.000000 -0.077137 -0.133606 -0.288805  1.504443
  3H   3s         0.000000  0.000000 -0.899084 -1.557261 -0.917000  0.123335
  3H   1pz       -0.033527  0.019357  0.000000  0.000000 -0.000000 -0.000000
  3H   1px        0.000000  0.000000 -0.027971 -0.063353 -0.080086  0.033690
  3H   1py        0.000000  0.000000 -0.063353 -0.101124 -0.138714  0.058354
                     18        19        20        21        22        23   
                   1.15911   1.15911   1.66822   1.91654   2.04290   2.04290
                   0.00000   0.00000   0.00000   0.00000   0.00000   0.00000
                  --------  --------  --------  --------  --------  --------
  0C   1s        -0.000000  0.000000  0.000000  0.000000 -0.000000 -0.000000
  0C   2s         0.000000  0.000000 -0.000000  0.000000 -0.000000 -0.000000
  0C   1pz        0.000000 -0.000000  0.000000 -0.179612 -0.000000  0.000000
  0C   1px        0.000000  0.064620 -0.000000 -0.000000  0.000000  0.000000
  0C   1py        0.064620 -0.000000  0.000000 -0.000000  0.000000  0.000000
  0C   3s         0.000000 -0.000002  0.000000 -0.000000  0.000000  0.000000
  0C   2pz       -0.000000 -0.000000  0.000000 -0.169611  0.000000  0.000000
  0C   2px        0.000000  0.967753 -0.000000 -0.000000 -0.000000  0.000000
  0C   2py        0.967753 -0.000000  0.000000  0.000000 -0.000000  0.000000
  0C   4s        -0.000000 -0.000003  0.000000  0.000000  0.000000 -0.000000
  0C   3pz        0.000000 -0.000000  0.000000 -0.391271 -0.000000  0.000000
  0C   3px        0.000000  2.202365 -0.000000  0.000000  0.000000 -0.000000
  0C   3py        2.202367 -0.000000  0.000002  0.000000 -0.000000 -0.000000
  0C   1dz2       0.000000  0.000000 -0.000000 -0.000000  0.000000  0.000000
  0C   1dxz       0.000000 -0.000000 -0.000000 -0.000000  0.067445  0.000000
  0C   1dyz      -0.000000  0.000000  0.000000  0.000000 -0.000000  0.067445
  0C   1dx2y2     0.000000  0.015341  0.000000 -0.000000  0.000000 -0.000000
  0C   1dxy      -0.015341  0.000000 -0.000000  0.000000  0.000000  0.000000
  0C   2dz2       0.000000  0.000001 -0.000000  0.000000 -0.000000 -0.000000
  0C   2dxz      -0.000000  0.000000  0.000000 -0.000000 -0.879204 -0.000000
  0C   2dyz      -0.000000 -0.000000 -0.000000 -0.000000  0.000000 -0.879204
  0C   2dx2y2     0.000000  2.026329 -0.000000  0.000000 -0.000000 -0.000000
  0C   2dxy      -2.026328  0.000000 -0.000001 -0.000000  0.000000 -0.000000
  1H   1s         0.000000  0.071335  0.000000  0.000000 -0.000000 -0.000000
  1H   2s        -0.000001 -3.093018  0.000000 -0.000000  0.000000  0.000000
  1H   3s        -0.000000 -0.137996 -0.000000 -0.000000 -0.000000  0.000000
  1H   1pz        0.000000 -0.000000 -0.000000  0.659027  1.055893  0.000000
  1H   1px        0.000000  0.237775  0.000000 -0.000000  0.000000  0.000000
  1H   1py        0.006870 -0.000000 -0.594088 -0.000000 -0.000000  0.000000
  2H   1s         0.061778 -0.035668  0.000000  0.000000 -0.000000 -0.000000
  2H   2s        -2.678635  1.546513 -0.000002 -0.000000  0.000000 -0.000000
  2H   3s        -0.119510  0.068998 -0.000000 -0.000000 -0.000000 -0.000000
  2H   1pz       -0.000000  0.000000 -0.000000  0.659027 -0.527947  0.914431
  2H   1px       -0.099985  0.064596  0.514495  0.000000 -0.000000 -0.000000
  2H   1py        0.180048 -0.099985  0.297044  0.000000 -0.000000  0.000000
  3H   1s        -0.061778 -0.035668 -0.000000  0.000000 -0.000000 -0.000000
  3H   2s         2.678635  1.546512  0.000002  0.000000 -0.000000 -0.000000
  3H   3s         0.119510  0.068998  0.000000  0.000000 -0.000000 -0.000000
  3H   1pz       -0.000000  0.000000 -0.000000  0.659027 -0.527947 -0.914431
  3H   1px        0.099985  0.064596 -0.514495  0.000000 -0.000000 -0.000000
  3H   1py        0.180048  0.099985  0.297044  0.000000 -0.000000  0.000000
                     24        25        26        27        28        29   
                   2.31544   2.31544   2.36020   2.57186   2.57186   2.80075
                   0.00000   0.00000   0.00000   0.00000   0.00000   0.00000
                  --------  --------  --------  --------  --------  --------
  0C   1s        -0.000000  0.000000  0.048404 -0.000000  0.000000  0.000000
  0C   2s        -0.000000  0.000000  0.097733 -0.000000  0.000000 -0.000000
  0C   1pz        0.000000 -0.000000  0.000000 -0.000000  0.000000 -0.000000
  0C   1px       -0.260531 -0.000000 -0.000002 -0.348942  0.000000  0.000000
  0C   1py       -0.000000  0.260531 -0.000000 -0.000000 -0.348942  0.113127
  0C   3s         0.000001 -0.000000 -0.396101  0.000001 -0.000000  0.000000
  0C   2pz       -0.000000  0.000000 -0.000000  0.000000 -0.000000  0.000000
  0C   2px        0.471393  0.000000  0.000001 -1.127418  0.000000 -0.000000
  0C   2py        0.000000 -0.471395 -0.000000 -0.000000 -1.127418 -1.722473
  0C   4s        -0.000001  0.000000 -0.348596  0.000002  0.000000  0.000000
  0C   3pz        0.000000 -0.000000  0.000000 -0.000000  0.000000 -0.000000
  0C   3px        0.232148  0.000000 -0.000000 -1.420767  0.000000 -0.000000
  0C   3py        0.000000 -0.232150 -0.000000 -0.000000 -1.420767 -0.596343
  0C   1dz2       0.000001  0.000000 -0.236239  0.000000  0.000000 -0.000000
  0C   1dxz      -0.000000 -0.000000 -0.000000  0.000000 -0.000000 -0.000000
  0C   1dyz       0.000000 -0.000000 -0.000000 -0.000000 -0.000000  0.000000
  0C   1dx2y2     0.107405  0.000000  0.000001  0.228159 -0.000000 -0.000000
  0C   1dxy      -0.000000  0.107406 -0.000000 -0.000000 -0.228159  0.088296
  0C   2dz2      -0.000001 -0.000000  0.388439 -0.000001 -0.000000  0.000000
  0C   2dxz      -0.000000  0.000000 -0.000000  0.000000  0.000000  0.000000
  0C   2dyz      -0.000000  0.000000 -0.000000  0.000000 -0.000000 -0.000000
  0C   2dx2y2     1.077644  0.000000  0.000003 -1.940324  0.000000 -0.000000
  0C   2dxy      -0.000000  1.077645 -0.000000  0.000000  1.940323  0.015819
  1H   1s         0.674293  0.000000  0.742866  0.507331 -0.000000 -0.000000
  1H   2s        -1.848793 -0.000000 -0.552956  1.907024 -0.000000  0.000000
  1H   3s         0.569135  0.000000  0.311566  0.584670 -0.000000 -0.000000
  1H   1pz        0.000000 -0.000000  0.000000 -0.000000 -0.000000  0.000000
  1H   1px        0.166382  0.000000 -0.317870 -1.115299  0.000000 -0.000000
  1H   1py        0.000000 -0.925304  0.000000 -0.000000 -0.639668  0.574900
  2H   1s        -0.337152 -0.583959  0.742859 -0.253667  0.439363 -0.738623
  2H   2s         0.924403  1.601108 -0.552945 -0.953512  1.651529  2.092035
  2H   3s        -0.284570 -0.492886  0.311560 -0.292336  0.506340 -0.336388
  2H   1pz       -0.000000 -0.000000 -0.000000  0.000000  0.000000 -0.000000
  2H   1px        0.735573 -0.328624  0.158937 -0.758576  0.205953  0.742473
  2H   1py        0.328625 -0.356112 -0.275281  0.205955 -0.996391 -0.711101
  3H   1s        -0.337152  0.583959  0.742859 -0.253667 -0.439363  0.738623
  3H   2s         0.924403 -1.601108 -0.552945 -0.953512 -1.651529 -2.092036
  3H   3s        -0.284570  0.492886  0.311560 -0.292336 -0.506340  0.336388
  3H   1pz       -0.000000  0.000000 -0.000000  0.000000 -0.000000 -0.000000
  3H   1px        0.735573  0.328624  0.158937 -0.758576 -0.205953 -0.742473
  3H   1py       -0.328625 -0.356112  0.275281 -0.205955 -0.996391 -0.711102
                     30        31        32        33        34        35   
                   2.80075   3.04448   3.04724   3.43070   3.43070   3.58536
                   0.00000   0.00000   0.00000   0.00000   0.00000   0.00000
                  --------  --------  --------  --------  --------  --------
  0C   1s         0.000000  0.000000 -0.070495  0.000000 -0.000000 -0.000000
  0C   2s         0.000000  0.000000 -0.214047  0.000000 -0.000000  0.000000
  0C   1pz       -0.000000 -1.316418 -0.000000  0.000000 -0.000000  0.000000
  0C   1px       -0.113127  0.000000  0.000000  0.000000 -1.225818  0.000000
  0C   1py        0.000000 -0.000000 -0.000000 -1.225818 -0.000000  0.000000
  0C   3s        -0.000002 -0.000000  1.706728 -0.000000  0.000000 -0.000000
  0C   2pz        0.000000  1.506877  0.000000 -0.000000  0.000000 -0.000000
  0C   2px        1.722470 -0.000000 -0.000001 -0.000001  2.093406 -0.000000
  0C   2py       -0.000000  0.000000 -0.000000  2.093407  0.000001 -0.000000
  0C   4s         0.000000 -0.000000  2.774414 -0.000000  0.000000  0.000000
  0C   3pz       -0.000000 -0.472920 -0.000000  0.000000  0.000000 -0.000000
  0C   3px        0.596340 -0.000000  0.000000 -0.000000  0.099793  0.000000
  0C   3py       -0.000000 -0.000000 -0.000000  0.099793  0.000000  0.000000
  0C   1dz2       0.000000 -0.000000  0.098425 -0.000000  0.000001  0.000000
  0C   1dxz       0.000000  0.000000  0.000000  0.000000 -0.000000  0.000005
  0C   1dyz       0.000000  0.000000 -0.000000 -0.000000 -0.000000 -1.122917
  0C   1dx2y2     0.088297  0.000000  0.000000  0.000000 -0.522384  0.000000
  0C   1dxy       0.000000 -0.000000  0.000000  0.522384  0.000000 -0.000000
  0C   2dz2      -0.000000  0.000000 -0.841656  0.000000 -0.000000 -0.000000
  0C   2dxz       0.000000 -0.000000 -0.000000 -0.000000  0.000000 -0.000002
  0C   2dyz       0.000000 -0.000000  0.000000  0.000000  0.000000  0.467438
  0C   2dx2y2     0.015817  0.000000 -0.000002 -0.000000  1.064681 -0.000000
  0C   2dxy       0.000000  0.000000  0.000000 -1.064680 -0.000000 -0.000000
  1H   1s         0.852890 -0.000000  0.533275  0.000000 -0.316917  0.000000
  1H   2s        -2.415671  0.000000 -2.146273  0.000000 -1.258908  0.000000
  1H   3s         0.388429  0.000000 -0.043107 -0.000000  0.275956 -0.000000
  1H   1pz       -0.000000 -0.168469 -0.000000 -0.000000 -0.000000 -0.000000
  1H   1px        1.139766 -0.000000  0.972489 -0.000000  0.310830  0.000000
  1H   1py        0.000000 -0.000000  0.000000  0.039640  0.000000  0.000000
  2H   1s        -0.426445 -0.000000  0.533273 -0.274458  0.158459 -0.000000
  2H   2s         1.207837  0.000000 -2.146274 -1.090246  0.629453  0.000000
  2H   3s        -0.194215  0.000000 -0.043107  0.238985 -0.137978 -0.000000
  2H   1pz       -0.000000 -0.168469 -0.000000 -0.000000 -0.000000  0.044494
  2H   1px       -0.146233  0.000000 -0.486245 -0.117428  0.107437  0.000000
  2H   1py       -0.742473 -0.000000  0.842200  0.243032 -0.117428 -0.000000
  3H   1s        -0.426445 -0.000000  0.533273  0.274458  0.158459 -0.000000
  3H   2s         1.207836  0.000000 -2.146274  1.090246  0.629454  0.000000
  3H   3s        -0.194215  0.000000 -0.043107 -0.238985 -0.137978  0.000000
  3H   1pz        0.000000 -0.168469 -0.000000  0.000000 -0.000000 -0.044494
  3H   1px       -0.146234  0.000000 -0.486245  0.117428  0.107437 -0.000000
  3H   1py        0.742473  0.000000 -0.842200  0.243032  0.117428  0.000000
                     36        37        38        39        40   
                   3.58536   3.95123   4.53068   4.53068  25.03198
                   0.00000   0.00000   0.00000   0.00000   0.00000
                  --------  --------  --------  --------  --------
  0C   1s         0.000000  0.053807  0.000000  0.000000 -2.038525
  0C   2s        -0.000000  0.112316  0.000000  0.000000  2.230241
  0C   1pz        0.000000 -0.000000  0.000000 -0.000000 -0.000000
  0C   1px       -0.000000  0.000001 -0.667597  0.000000 -0.000000
  0C   1py        0.000000  0.000000  0.000000  0.667597  0.000000
  0C   3s         0.000000 -0.892240 -0.000002 -0.000000 -0.718589
  0C   2pz       -0.000000  0.000000 -0.000000  0.000000  0.000000
  0C   2px        0.000000 -0.000002  2.514208 -0.000000  0.000000
  0C   2py       -0.000000  0.000000 -0.000000 -2.514210 -0.000000
  0C   4s        -0.000000 -0.476008 -0.000001  0.000000 -0.018149
  0C   3pz       -0.000000  0.000000  0.000000 -0.000000  0.000000
  0C   3px        0.000000  0.000000 -0.021194  0.000000  0.000000
  0C   3py       -0.000000 -0.000000  0.000000  0.021194  0.000000
  0C   1dz2      -0.000000  1.178248  0.000001  0.000000  0.068358
  0C   1dxz       1.122917  0.000000  0.000000  0.000000  0.000000
  0C   1dyz       0.000005  0.000000  0.000000 -0.000000  0.000000
  0C   1dx2y2    -0.000000 -0.000000  1.156878 -0.000000  0.000000
  0C   1dxy      -0.000000 -0.000000  0.000000  1.156878 -0.000000
  0C   2dz2       0.000000 -0.300503  0.000000 -0.000000  0.113410
  0C   2dxz      -0.467439 -0.000000  0.000000  0.000000 -0.000000
  0C   2dyz      -0.000002 -0.000000 -0.000000  0.000000 -0.000000
  0C   2dx2y2     0.000000 -0.000000  0.461219 -0.000000  0.000000
  0C   2dxy       0.000000  0.000000  0.000000  0.461218  0.000000
  1H   1s        -0.000000  0.132280 -0.513460  0.000000 -0.009294
  1H   2s        -0.000000  0.295658 -1.470465  0.000000  0.294108
  1H   3s         0.000000  0.073464  0.278855 -0.000000 -0.063626
  1H   1pz       -0.051376 -0.000000  0.000000  0.000000 -0.000000
  1H   1px        0.000000 -0.502817  1.215197 -0.000000 -0.180008
  1H   1py       -0.000000 -0.000000 -0.000000 -0.055532 -0.000000
  2H   1s        -0.000000  0.132280  0.256731  0.444670 -0.009294
  2H   2s         0.000000  0.295656  0.735233  1.273461  0.294109
  2H   3s        -0.000000  0.073465 -0.139427 -0.241496 -0.063626
  2H   1pz        0.025688 -0.000000 -0.000000 -0.000000 -0.000000
  2H   1px        0.000000  0.251408  0.345448  0.502150  0.090004
  2H   1py       -0.000000 -0.435452 -0.502150 -0.925282 -0.155892
  3H   1s         0.000000  0.132280  0.256731 -0.444671 -0.009294
  3H   2s        -0.000000  0.295656  0.735233 -1.273461  0.294109
  3H   3s         0.000000  0.073465 -0.139427  0.241496 -0.063626
  3H   1pz        0.025689 -0.000000 -0.000000 -0.000000 -0.000000
  3H   1px       -0.000000  0.251408  0.345448 -0.502150  0.090004
  3H   1py       -0.000000  0.435452  0.502150 -0.925282  0.155892

                      0         1         2         3         4         5   
                 -11.20502  -0.85721  -0.56672  -0.56672   0.13618   0.17543
                   1.00000   1.00000   1.00000   1.00000   0.00000   0.00000
                  --------  --------  --------  --------  --------  --------
  0C   1s        -0.563755  0.100867 -0.000000 -0.000000 -0.000000  0.049401
  0C   2s        -0.466807  0.166119  0.000000 -0.000000 -0.000000  0.078626
  0C   1pz        0.000000 -0.000000  0.000000  0.000000  0.187329  0.000000
  0C   1px       -0.000000  0.000000  0.000000  0.190836  0.000000 -0.000000
  0C   1py        0.000000  0.000000  0.190836 -0.000000  0.000000 -0.000000
  0C   3s        -0.002421 -0.413009  0.000000  0.000000  0.000000 -0.065155
  0C   2pz       -0.000000 -0.000000 -0.000000  0.000000  0.186783  0.000000
  0C   2px        0.000000  0.000000  0.000000  0.261783  0.000000 -0.000000
  0C   2py       -0.000000 -0.000000  0.261783 -0.000000 -0.000000 -0.000000
  0C   4s         0.000533 -0.262871 -0.000000  0.000000  0.000000 -2.094820
  0C   3pz       -0.000000  0.000000 -0.000000  0.000000  0.770812  0.000000
  0C   3px        0.000000  0.000000  0.000000  0.151753  0.000000 -0.000000
  0C   3py       -0.000000 -0.000000  0.151753 -0.000000  0.000000 -0.000000
  0C   1dz2       0.001060  0.018251  0.000000 -0.000000 -0.000000  0.002670
  0C   1dxz      -0.000000 -0.000000  0.000000 -0.000000 -0.000000 -0.000000
  0C   1dyz      -0.000000  0.000000  0.000000  0.000000 -0.000000 -0.000000
  0C   1dx2y2     0.000000  0.000000  0.000000  0.016803 -0.000000  0.000000
  0C   1dxy      -0.000000  0.000000 -0.016803  0.000000 -0.000000 -0.000000
  0C   2dz2      -0.000022  0.024135  0.000000 -0.000000 -0.000000  0.037456
  0C   2dxz       0.000000 -0.000000  0.000000  0.000000  0.000000  0.000000
  0C   2dyz       0.000000 -0.000000 -0.000000  0.000000 -0.000000  0.000000
  0C   2dx2y2     0.000000 -0.000000 -0.000000 -0.002547  0.000000  0.000000
  0C   2dxy       0.000000  0.000000  0.002547 -0.000000 -0.000000  0.000000
  1H   1s        -0.000389 -0.100973  0.000000  0.176818 -0.000000  0.014689
  1H   2s        -0.000203 -0.141835  0.000000  0.303700 -0.000000 -0.036510
  1H   3s        -0.000115 -0.016423  0.000000  0.105099 -0.000000  1.015245
  1H   1pz       -0.000000 -0.000000  0.000000 -0.000000  0.022169  0.000000
  1H   1px        0.000084  0.021647 -0.000000 -0.030978  0.000000  0.000129
  1H   1py       -0.000000 -0.000000  0.008647 -0.000000  0.000000 -0.000000
  2H   1s        -0.000389 -0.100973  0.153129 -0.088409 -0.000000  0.014689
  2H   2s        -0.000203 -0.141835  0.263012 -0.151850  0.000000 -0.036510
  2H   3s        -0.000115 -0.016423  0.091018 -0.052549 -0.000000  1.015245
  2H   1pz        0.000000 -0.000000  0.000000  0.000000  0.022169  0.000000
  2H   1px       -0.000042 -0.010824  0.017158 -0.001259 -0.000000 -0.000065
  2H   1py        0.000072  0.018747 -0.021072  0.017158  0.000000  0.000112
  3H   1s        -0.000389 -0.100973 -0.153129 -0.088409  0.000000  0.014689
  3H   2s        -0.000203 -0.141835 -0.263012 -0.151850  0.000000 -0.036510
  3H   3s        -0.000115 -0.016423 -0.091018 -0.052549 -0.000000  1.015245
  3H   1pz        0.000000 -0.000000 -0.000000  0.000000  0.022169  0.000000
  3H   1px       -0.000042 -0.010824 -0.017158 -0.001259  0.000000 -0.000065
  3H   1py       -0.000072 -0.018747 -0.021072 -0.017158  0.000000 -0.000112
                      6         7         8         9        10        11   
                   0.23495   0.23495   0.44887   0.44887   0.56243   0.71182
                   0.00000   0.00000   0.00000   0.00000   0.00000   0.00000
                  --------  --------  --------  --------  --------  --------
  0C   1s         0.000000  0.000000 -0.000000 -0.000000 -0.032791 -0.000000
  0C   2s         0.000000  0.000000 -0.000000 -0.000000 -0.057568 -0.000000
  0C   1pz       -0.000000 -0.000000  0.000000  0.000000  0.000000  0.240880
  0C   1px        0.000000  0.131506 -0.002528  0.000000  0.000000  0.000000
  0C   1py        0.131506 -0.000000 -0.000000 -0.002528 -0.000000 -0.000000
  0C   3s        -0.000000  0.000000  0.000000  0.000000 -0.013713  0.000000
  0C   2pz       -0.000000 -0.000000  0.000000  0.000000  0.000000  1.013823
  0C   2px        0.000000  0.062104 -0.103659  0.000000 -0.000000  0.000000
  0C   2py        0.062104 -0.000000 -0.000000 -0.103659  0.000000  0.000000
  0C   4s        -0.000000 -0.000001  0.000003 -0.000000  2.124605 -0.000000
  0C   3pz       -0.000000 -0.000000 -0.000000 -0.000000 -0.000000 -1.045818
  0C   3px        0.000001  1.203161 -2.109165  0.000000  0.000001 -0.000000
  0C   3py        1.203162 -0.000001 -0.000000 -2.109168 -0.000000  0.000000
  0C   1dz2       0.000000  0.000000 -0.000000 -0.000000  0.009111  0.000000
  0C   1dxz       0.000000  0.000000  0.000000 -0.000000 -0.000000  0.000000
  0C   1dyz      -0.000000  0.000000 -0.000000  0.000000 -0.000000 -0.000000
  0C   1dx2y2    -0.000000 -0.009420  0.021352 -0.000000 -0.000000 -0.000000
  0C   1dxy       0.009420 -0.000000 -0.000000 -0.021352 -0.000000  0.000000
  0C   2dz2      -0.000000 -0.000000 -0.000000  0.000000  0.020798 -0.000000
  0C   2dxz      -0.000000  0.000000  0.000000 -0.000000  0.000000 -0.000000
  0C   2dyz       0.000000 -0.000000  0.000000 -0.000000  0.000000  0.000000
  0C   2dx2y2     0.000000  0.014428 -0.234660  0.000000 -0.000000  0.000000
  0C   2dxy      -0.014428  0.000000  0.000000  0.234659 -0.000000 -0.000000
  1H   1s        -0.000000 -0.005718  0.048160 -0.000000 -0.057850  0.000000
  1H   2s         0.000000  0.175589  1.618056 -0.000000 -1.089552 -0.000000
  1H   3s        -0.000001 -2.255582  0.308652 -0.000000  0.052719  0.000000
  1H   1pz        0.000000 -0.000000  0.000000  0.000000  0.000000  0.045013
  1H   1px       -0.000000 -0.026752 -0.094274  0.000000  0.016727 -0.000000
  1H   1py        0.006650 -0.000000 -0.000000 -0.063910 -0.000000  0.000000
  2H   1s        -0.004952  0.002859 -0.024080  0.041708 -0.057850  0.000000
  2H   2s         0.152065 -0.087795 -0.809029  1.401279 -1.089551  0.000000
  2H   3s        -1.953391  1.127793 -0.154326  0.267303  0.052718 -0.000000
  2H   1pz       -0.000000  0.000000  0.000000  0.000000  0.000000  0.045013
  2H   1px        0.014464 -0.001700 -0.071501  0.013148 -0.008363  0.000000
  2H   1py       -0.018402  0.014464  0.013148 -0.086683  0.014486  0.000000
  3H   1s         0.004952  0.002859 -0.024080 -0.041708 -0.057850  0.000000
  3H   2s        -0.152065 -0.087795 -0.809029 -1.401279 -1.089551  0.000000
  3H   3s         1.953393  1.127790 -0.154326 -0.267303  0.052718 -0.000000
  3H   1pz       -0.000000 -0.000000  0.000000  0.000000  0.000000  0.045013
  3H   1px       -0.014464 -0.001700 -0.071501 -0.013148 -0.008363  0.000000
  3H   1py       -0.018402 -0.014464 -0.013148 -0.086683 -0.014486  0.000000
                     12        13        14        15        16        17   
                   0.80828   0.80828   0.84864   0.84864   0.92251   1.11718
                   0.00000   0.00000   0.00000   0.00000   0.00000   0.00000
                  --------  --------  --------  --------  --------  --------
  0C   1s        -0.000000 -0.000000  0.000000 -0.000000 -0.119714 -0.010592
  0C   2s        -0.000000 -0.000000  0.000000 -0.000000 -0.250528 -0.028838
  0C   1pz       -0.000000  0.000000 -0.000000  0.000000 -0.000000 -0.000000
  0C   1px        0.260906 -0.000000  0.000000  0.000000 -0.000000  0.000000
  0C   1py        0.000000  0.260906  0.000000 -0.000000 -0.000000  0.000000
  0C   3s         0.000001  0.000000 -0.000000  0.000000  1.895569 -0.092925
  0C   2pz       -0.000000 -0.000000 -0.000000  0.000000 -0.000000 -0.000000
  0C   2px        0.810958 -0.000000  0.000000 -0.000000  0.000000  0.000000
  0C   2py        0.000000  0.810958  0.000000 -0.000000 -0.000000  0.000000
  0C   4s        -0.000000 -0.000000  0.000000 -0.000000 -4.259419  2.847464
  0C   3pz        0.000000 -0.000000  0.000000 -0.000000  0.000000  0.000000
  0C   3px       -2.279497  0.000000 -0.000000 -0.000000  0.000001  0.000002
  0C   3py       -0.000000 -2.279498  0.000000  0.000000  0.000000  0.000000
  0C   1dz2      -0.000000  0.000000 -0.000000  0.000000  0.010212  0.020059
  0C   1dxz       0.000000 -0.000000  0.000000 -0.019469 -0.000000  0.000000
  0C   1dyz      -0.000000 -0.000000  0.019469  0.000000 -0.000000 -0.000000
  0C   1dx2y2    -0.005854  0.000000 -0.000000 -0.000000  0.000000 -0.000000
  0C   1dxy       0.000000  0.005854  0.000000 -0.000000  0.000000 -0.000000
  0C   2dz2      -0.000000  0.000000 -0.000000  0.000000  0.264163 -1.528458
  0C   2dxz      -0.000000  0.000000 -0.000000  0.971942 -0.000000  0.000000
  0C   2dyz       0.000000  0.000000 -0.971942 -0.000000 -0.000000 -0.000000
  0C   2dx2y2    -0.628275  0.000000 -0.000000 -0.000000  0.000002  0.000001
  0C   2dxy       0.000000  0.628275 -0.000000 -0.000000  0.000000 -0.000000
  1H   1s        -0.058757  0.000000 -0.000000 -0.000000 -0.034562  0.011934
  1H   2s         0.202113 -0.000000  0.000000  0.000000  0.306202 -1.416122
  1H   3s         1.770631 -0.000000  0.000000  0.000000  0.897788 -0.119266
  1H   1pz        0.000000  0.000000 -0.000000  0.046609  0.000000 -0.000000
  1H   1px       -0.149132  0.000000 -0.000000 -0.000000 -0.170349  0.068810
  1H   1py        0.000000  0.010099  0.000000  0.000000 -0.000000  0.000000
  2H   1s         0.029378 -0.050885 -0.000000  0.000000 -0.034562  0.011934
  2H   2s        -0.101056  0.175035 -0.000000 -0.000000  0.306204 -1.416119
  2H   3s        -0.885315  1.533412 -0.000000 -0.000000  0.897789 -0.119266
  2H   1pz        0.000000 -0.000000 -0.040364 -0.023304 -0.000000  0.000000
  2H   1px       -0.029709  0.068949 -0.000000 -0.000000  0.085175 -0.034405
  2H   1py        0.068949 -0.109324  0.000000  0.000000 -0.147527  0.059591
  3H   1s         0.029378  0.050885  0.000000 -0.000000 -0.034562  0.011934
  3H   2s        -0.101057 -0.175035 -0.000000  0.000000  0.306204 -1.416119
  3H   3s        -0.885315 -1.533412 -0.000000  0.000000  0.897789 -0.119266
  3H   1pz        0.000000  0.000000  0.040364 -0.023304  0.000000  0.000000
  3H   1px       -0.029709 -0.068949 -0.000000  0.000000  0.085175 -0.034405
  3H   1py       -0.068949 -0.109324 -0.000000  0.000000  0.147527 -0.059591
                     18        19        20        21        22        23   
                   1.16944   1.16944   1.66336   1.93195   2.05126   2.05126
                   0.00000   0.00000   0.00000   0.00000   0.00000   0.00000
                  --------  --------  --------  --------  --------  --------
  0C   1s         0.000000  0.000000  0.000000 -0.000000 -0.000000 -0.000000
  0C   2s         0.000000  0.000000 -0.000000 -0.000000 -0.000000 -0.000000
  0C   1pz        0.000000 -0.000000 -0.000000  0.174034 -0.000000  0.000000
  0C   1px        0.000000  0.068544 -0.000000  0.000000  0.000000  0.000000
  0C   1py        0.068544 -0.000000  0.000000  0.000000 -0.000000  0.000000
  0C   3s         0.000000 -0.000002  0.000000  0.000000  0.000000  0.000000
  0C   2pz       -0.000000 -0.000000 -0.000000  0.214419  0.000000  0.000000
  0C   2px        0.000000  0.967089 -0.000000  0.000000 -0.000000  0.000000
  0C   2py        0.967089 -0.000000  0.000000  0.000000  0.000000  0.000000
  0C   4s        -0.000000 -0.000003 -0.000000 -0.000000  0.000000 -0.000000
  0C   3pz        0.000000  0.000000 -0.000000  0.375250 -0.000000  0.000000
  0C   3px        0.000000  2.190700 -0.000000 -0.000000 -0.000000 -0.000000
  0C   3py        2.190702 -0.000000  0.000002 -0.000000  0.000000 -0.000000
  0C   1dz2      -0.000000  0.000000 -0.000000  0.000000  0.000000  0.000000
  0C   1dxz       0.000000 -0.000000 -0.000000 -0.000000  0.066832  0.000000
  0C   1dyz       0.000000  0.000000  0.000000 -0.000000 -0.000000  0.066832
  0C   1dx2y2     0.000000  0.013429  0.000000  0.000000  0.000000  0.000000
  0C   1dxy      -0.013429  0.000000 -0.000000  0.000000 -0.000000  0.000000
  0C   2dz2       0.000000  0.000002 -0.000000 -0.000000 -0.000000 -0.000000
  0C   2dxz      -0.000000  0.000000  0.000000  0.000000 -0.885594 -0.000000
  0C   2dyz       0.000000 -0.000000 -0.000000  0.000000  0.000000 -0.885595
  0C   2dx2y2     0.000000  2.012676 -0.000000 -0.000000 -0.000000 -0.000000
  0C   2dxy      -2.012675  0.000000 -0.000001 -0.000000 -0.000000  0.000000
  1H   1s         0.000000  0.078732  0.000000 -0.000000 -0.000000 -0.000000
  1H   2s        -0.000000 -3.081340  0.000000  0.000000  0.000000 -0.000000
  1H   3s        -0.000000 -0.130891  0.000000  0.000000 -0.000000  0.000000
  1H   1pz       -0.000000  0.000000  0.000000 -0.659702  1.055632  0.000000
  1H   1px        0.000000  0.230428 -0.000000  0.000000  0.000000  0.000000
  1H   1py        0.002628 -0.000000 -0.594088  0.000000  0.000000 -0.000000
  2H   1s         0.068184 -0.039366  0.000000 -0.000000 -0.000000 -0.000000
  2H   2s        -2.668521  1.540674 -0.000002  0.000000 -0.000000  0.000000
  2H   3s        -0.113356  0.065445 -0.000000  0.000000  0.000000 -0.000000
  2H   1pz       -0.000000  0.000000  0.000000 -0.659702 -0.527816  0.914204
  2H   1px       -0.098640  0.059578  0.514495 -0.000000 -0.000000 -0.000000
  2H   1py        0.173478 -0.098640  0.297044  0.000000  0.000000  0.000000
  3H   1s        -0.068184 -0.039366 -0.000000 -0.000000 -0.000000 -0.000000
  3H   2s         2.668521  1.540673  0.000002 -0.000000  0.000000 -0.000000
  3H   3s         0.113356  0.065445  0.000000 -0.000000 -0.000000 -0.000000
  3H   1pz       -0.000000 -0.000000  0.000000 -0.659702 -0.527816 -0.914204
  3H   1px        0.098640  0.059578 -0.514495 -0.000000 -0.000000  0.000000
  3H   1py        0.173478  0.098640  0.297044  0.000000  0.000000 -0.000000
                     24        25        26        27        28        29   
                   2.31114   2.31114   2.36956   2.57689   2.57689   2.80025
                   0.00000   0.00000   0.00000   0.00000   0.00000   0.00000
                  --------  --------  --------  --------  --------  --------
  0C   1s         0.000000 -0.000000 -0.050224 -0.000000 -0.000000 -0.000000
  0C   2s         0.000000  0.000000 -0.099579 -0.000000  0.000000 -0.000000
  0C   1pz       -0.000000 -0.000000 -0.000000 -0.000000  0.000000 -0.000000
  0C   1px        0.260089 -0.000000  0.000002 -0.356662  0.000000  0.000000
  0C   1py        0.000000  0.260089  0.000000 -0.000000 -0.356663  0.101446
  0C   3s        -0.000001 -0.000000  0.396668  0.000001 -0.000000  0.000000
  0C   2pz        0.000000  0.000000  0.000000  0.000000 -0.000000  0.000000
  0C   2px       -0.490292  0.000000 -0.000001 -1.109839  0.000000 -0.000000
  0C   2py       -0.000000 -0.490295 -0.000000 -0.000000 -1.109839 -1.728853
  0C   4s         0.000002 -0.000000  0.233809  0.000002  0.000000 -0.000000
  0C   3pz       -0.000000 -0.000000 -0.000000 -0.000000  0.000000 -0.000000
  0C   3px       -0.249209  0.000000  0.000001 -1.414919  0.000000 -0.000000
  0C   3py       -0.000000 -0.249211  0.000000 -0.000000 -1.414919 -0.608201
  0C   1dz2      -0.000001  0.000000  0.211363  0.000000  0.000000 -0.000000
  0C   1dxz       0.000000  0.000000  0.000000  0.000000  0.000000  0.000000
  0C   1dyz      -0.000000 -0.000000  0.000000 -0.000000 -0.000000 -0.000000
  0C   1dx2y2    -0.104739  0.000000 -0.000001  0.226641 -0.000000 -0.000000
  0C   1dxy       0.000000  0.104740  0.000000 -0.000000 -0.226641  0.086602
  0C   2dz2       0.000001  0.000000 -0.342968 -0.000001 -0.000000  0.000000
  0C   2dxz       0.000000 -0.000000  0.000000  0.000000 -0.000000 -0.000000
  0C   2dyz      -0.000000  0.000000  0.000000  0.000000 -0.000000  0.000000
  0C   2dx2y2    -1.097281  0.000000 -0.000002 -1.935670  0.000000 -0.000000
  0C   2dxy       0.000000  1.097281  0.000000  0.000000  1.935669  0.024758
  1H   1s        -0.675089  0.000000 -0.759056  0.525074 -0.000000 -0.000000
  1H   2s         1.884729 -0.000000  0.617051  1.869435 -0.000000  0.000000
  1H   3s        -0.566993  0.000000 -0.305197  0.592871 -0.000000 -0.000000
  1H   1pz        0.000000  0.000000 -0.000000 -0.000000  0.000000  0.000000
  1H   1px       -0.185086  0.000000  0.298169 -1.100119  0.000000 -0.000000
  1H   1py       -0.000000 -0.926942 -0.000000 -0.000000 -0.639018  0.572794
  2H   1s         0.337549 -0.584648 -0.759050 -0.262539  0.454729 -0.728087
  2H   2s        -0.942370  1.632229  0.617043 -0.934717  1.618976  2.098067
  2H   3s         0.283498 -0.491031 -0.305192 -0.296437  0.513443 -0.328310
  2H   1pz        0.000000 -0.000000  0.000000  0.000000 -0.000000 -0.000000
  2H   1px       -0.741478 -0.321233 -0.149086 -0.754293  0.199661  0.747064
  2H   1py       -0.321234 -0.370550  0.258219  0.199663 -0.984843 -0.721160
  3H   1s         0.337549  0.584647 -0.759050 -0.262539 -0.454729  0.728087
  3H   2s        -0.942370 -1.632229  0.617043 -0.934717 -1.618976 -2.098068
  3H   3s         0.283498  0.491031 -0.305192 -0.296437 -0.513443  0.328310
  3H   1pz        0.000000  0.000000  0.000000  0.000000 -0.000000 -0.000000
  3H   1px       -0.741478  0.321233 -0.149086 -0.754293 -0.199661 -0.747064
  3H   1py        0.321234 -0.370550 -0.258219 -0.199663 -0.984843 -0.721160
                     30        31        32        33        34        35   
                   2.80025   3.06313   3.13185   3.45242   3.45242   3.65594
                   0.00000   0.00000   0.00000   0.00000   0.00000   0.00000
                  --------  --------  --------  --------  --------  --------
  0C   1s         0.000000  0.074752 -0.000000 -0.000000  0.000000  0.000000
  0C   2s         0.000000  0.223722 -0.000000 -0.000000  0.000000 -0.000000
  0C   1pz       -0.000000 -0.000000 -1.324582  0.000000  0.000000 -0.000000
  0C   1px       -0.101446 -0.000000  0.000000 -0.000000  1.222830 -0.000000
  0C   1py        0.000000  0.000000  0.000000  1.222830  0.000000 -0.000000
  0C   3s        -0.000002 -1.764000  0.000000  0.000000 -0.000000  0.000000
  0C   2pz        0.000000  0.000000  1.483187 -0.000000 -0.000000  0.000000
  0C   2px        1.728850  0.000001 -0.000000  0.000000 -2.092989  0.000000
  0C   2py       -0.000000  0.000000 -0.000000 -2.092989 -0.000000  0.000000
  0C   4s         0.000000 -2.764598  0.000000  0.000000 -0.000001 -0.000000
  0C   3pz       -0.000000 -0.000000 -0.459219 -0.000000  0.000000  0.000000
  0C   3px        0.608198 -0.000000 -0.000000  0.000000 -0.112503 -0.000000
  0C   3py       -0.000000  0.000000 -0.000000 -0.112503 -0.000000 -0.000000
  0C   1dz2       0.000000 -0.071243 -0.000000  0.000000 -0.000001 -0.000000
  0C   1dxz       0.000000 -0.000000  0.000000  0.000000  0.000000 -0.000002
  0C   1dyz       0.000000  0.000000  0.000000  0.000000  0.000000  1.122800
  0C   1dx2y2     0.086602 -0.000000  0.000000 -0.000000  0.526646 -0.000000
  0C   1dxy       0.000000 -0.000000 -0.000000 -0.526646 -0.000000 -0.000000
  0C   2dz2      -0.000000  0.832982 -0.000000 -0.000000  0.000000  0.000000
  0C   2dxz       0.000000 -0.000000 -0.000000 -0.000000 -0.000000  0.000001
  0C   2dyz       0.000000 -0.000000 -0.000000 -0.000000 -0.000000 -0.455703
  0C   2dx2y2     0.024757  0.000002  0.000000  0.000000 -1.067727  0.000000
  0C   2dxy       0.000000 -0.000000  0.000000  1.067727  0.000000  0.000000
  1H   1s         0.840724 -0.509003  0.000000 -0.000000  0.313131 -0.000000
  1H   2s        -2.422636  2.136732  0.000000 -0.000000  1.268614 -0.000000
  1H   3s         0.379101  0.047144  0.000000  0.000000 -0.271827  0.000000
  1H   1pz        0.000000 -0.000000 -0.161705  0.000000  0.000000  0.000000
  1H   1px        1.152475 -0.992501 -0.000000  0.000000 -0.313307 -0.000000
  1H   1py        0.000000 -0.000000 -0.000000 -0.038359 -0.000000 -0.000000
  2H   1s        -0.420362 -0.509002  0.000000  0.271180 -0.156566  0.000000
  2H   2s         1.211319  2.136733 -0.000000  1.098652 -0.634306  0.000000
  2H   3s        -0.189551  0.047144  0.000000 -0.235409  0.135914  0.000000
  2H   1pz        0.000000  0.000000 -0.161705  0.000000  0.000000 -0.043457
  2H   1px       -0.141476  0.496251 -0.000000  0.119055 -0.107096 -0.000000
  2H   1py       -0.747064 -0.859531  0.000000 -0.244570  0.119055  0.000000
  3H   1s        -0.420362 -0.509002  0.000000 -0.271180 -0.156566  0.000000
  3H   2s         1.211319  2.136733 -0.000000 -1.098652 -0.634306 -0.000000
  3H   3s        -0.189550  0.047144 -0.000000  0.235409  0.135914 -0.000000
  3H   1pz        0.000000 -0.000000 -0.161705 -0.000000  0.000000  0.043457
  3H   1px       -0.141476  0.496251  0.000000 -0.119055 -0.107096 -0.000000
  3H   1py        0.747064  0.859531 -0.000000 -0.244570 -0.119055 -0.000000
                     36        37        38        39        40   
                   3.65594   4.01042   4.54810   4.54810  25.04849
                   0.00000   0.00000   0.00000   0.00000   0.00000
                  --------  --------  --------  --------  --------
  0C   1s         0.000000 -0.048799  0.000000 -0.000000 -2.038416
  0C   2s        -0.000000 -0.100578  0.000000  0.000000  2.230301
  0C   1pz        0.000000  0.000000 -0.000000  0.000000 -0.000000
  0C   1px       -0.000000 -0.000001 -0.671979  0.000000 -0.000000
  0C   1py       -0.000000  0.000000  0.000000  0.671979 -0.000000
  0C   3s         0.000000  0.814143 -0.000002  0.000000 -0.718154
  0C   2pz       -0.000000 -0.000000  0.000000 -0.000000  0.000000
  0C   2px        0.000000  0.000002  2.522176 -0.000000  0.000000
  0C   2py        0.000000 -0.000000 -0.000000 -2.522179  0.000000
  0C   4s        -0.000000  0.426064 -0.000001  0.000000 -0.018124
  0C   3pz       -0.000000 -0.000000  0.000000  0.000000  0.000000
  0C   3px        0.000000 -0.000000 -0.015804  0.000000  0.000000
  0C   3py        0.000000  0.000000  0.000000  0.015804  0.000000
  0C   1dz2      -0.000000 -1.185009  0.000001  0.000000  0.068267
  0C   1dxz       1.122800 -0.000000  0.000000  0.000000  0.000000
  0C   1dyz       0.000002 -0.000000  0.000000  0.000000  0.000000
  0C   1dx2y2    -0.000000  0.000000  1.155667 -0.000000  0.000000
  0C   1dxy       0.000000  0.000000  0.000000  1.155667 -0.000000
  0C   2dz2       0.000000  0.313340 -0.000000 -0.000000  0.113126
  0C   2dxz      -0.455703  0.000000  0.000000 -0.000000 -0.000000
  0C   2dyz      -0.000001  0.000000 -0.000000 -0.000000 -0.000000
  0C   2dx2y2     0.000000  0.000000  0.467374 -0.000000  0.000000
  0C   2dxy      -0.000000  0.000000  0.000000  0.467374 -0.000000
  1H   1s        -0.000000 -0.132424 -0.512581  0.000000 -0.009265
  1H   2s        -0.000000 -0.254971 -1.479006  0.000000  0.293760
  1H   3s         0.000000 -0.071092  0.279068 -0.000000 -0.063544
  1H   1pz       -0.050179  0.000000  0.000000  0.000000 -0.000000
  1H   1px        0.000000  0.471328  1.214076 -0.000000 -0.179840
  1H   1py        0.000000  0.000000 -0.000000 -0.055232 -0.000000
  2H   1s        -0.000000 -0.132424  0.256291  0.443909 -0.009265
  2H   2s        -0.000000 -0.254969  0.739504  1.280858  0.293761
  2H   3s         0.000000 -0.071093 -0.139534 -0.241680 -0.063544
  2H   1pz        0.025090  0.000000 -0.000000  0.000000 -0.000000
  2H   1px        0.000000 -0.235663  0.344944  0.501794  0.089920
  2H   1py        0.000000  0.408181 -0.501795 -0.924367 -0.155747
  3H   1s         0.000000 -0.132424  0.256291 -0.443909 -0.009265
  3H   2s         0.000000 -0.254969  0.739504 -1.280858  0.293761
  3H   3s        -0.000000 -0.071093 -0.139534  0.241680 -0.063544
  3H   1pz        0.025090  0.000000 -0.000000 -0.000000 -0.000000
  3H   1px        0.000000 -0.235663  0.344944 -0.501794  0.089920
  3H   1py        0.000000 -0.408181  0.501795 -0.924367  0.155747



                    ********************************
                    * MULLIKEN POPULATION ANALYSIS *
                    ********************************

--------------------------------------------
MULLIKEN ATOMIC CHARGES AND SPIN POPULATIONS
--------------------------------------------
   0 C :   -0.274564    1.288479
   1 H :    0.091521   -0.096160
   2 H :    0.091521   -0.096160
   3 H :    0.091521   -0.096160
Sum of atomic charges         :   -0.0000000
Sum of atomic spin populations:    1.0000000

-----------------------------------------------------
MULLIKEN REDUCED ORBITAL CHARGES AND SPIN POPULATIONS
-----------------------------------------------------
CHARGE
  0 C s       :     3.260697  s :     3.260697
      pz      :     0.982886  p :     2.993444
      px      :     1.005279
      py      :     1.005279
      dz2     :     0.004580  d :     0.020423
      dxz     :     0.000000
      dyz     :     0.000000
      dx2y2   :     0.007921
      dxy     :     0.007921
  1 H s       :     0.879150  s :     0.879150
      pz      :     0.005705  p :     0.029329
      px      :     0.020234
      py      :     0.003390
  2 H s       :     0.879150  s :     0.879150
      pz      :     0.005705  p :     0.029329
      px      :     0.007601
      py      :     0.016023
  3 H s       :     0.879150  s :     0.879150
      pz      :     0.005705  p :     0.029329
      px      :     0.007601
      py      :     0.016023

SPIN
  0 C s       :     0.112269  s :     0.112269
      pz      :     0.982886  p :     1.174060
      px      :     0.095587
      py      :     0.095587
      dz2     :    -0.008143  d :     0.002151
      dxz     :     0.000000
      dyz     :     0.000000
      dx2y2   :     0.005147
      dxy     :     0.005147
  1 H s       :    -0.101718  s :    -0.101718
      pz      :     0.005705  p :     0.005558
      px      :    -0.000368
      py      :     0.000221
  2 H s       :    -0.101718  s :    -0.101718
      pz      :     0.005705  p :     0.005558
      px      :     0.000074
      py      :    -0.000220
  3 H s       :    -0.101718  s :    -0.101718
      pz      :     0.005705  p :     0.005558
      px      :     0.000074
      py      :    -0.000220


                     *******************************
                     * LOEWDIN POPULATION ANALYSIS *
                     *******************************

-------------------------------------------
LOEWDIN ATOMIC CHARGES AND SPIN POPULATIONS
-------------------------------------------
   0 C :   -0.012129    1.035939
   1 H :    0.004043   -0.011980
   2 H :    0.004043   -0.011980
   3 H :    0.004043   -0.011980

----------------------------------------------------
LOEWDIN REDUCED ORBITAL CHARGES AND SPIN POPULATIONS
----------------------------------------------------
CHARGE
  0 C s       :     2.857790  s :     2.857790
      pz      :     0.939122  p :     3.071281
      px      :     1.066079
      py      :     1.066079
      dz2     :     0.007247  d :     0.083058
      dxz     :     0.000000
      dyz     :    -0.000000
      dx2y2   :     0.037905
      dxy     :     0.037905
  1 H s       :     0.913434  s :     0.913434
      pz      :     0.020293  p :     0.082523
      px      :     0.048135
      py      :     0.014096
  2 H s       :     0.913434  s :     0.913434
      pz      :     0.020293  p :     0.082523
      px      :     0.022605
      py      :     0.039625
  3 H s       :     0.913434  s :     0.913434
      pz      :     0.020293  p :     0.082523
      px      :     0.022605
      py      :     0.039625

SPIN
  0 C s       :     0.045740  s :     0.045740
      pz      :     0.939122  p :     1.004272
      px      :     0.032575
      py      :     0.032575
      dz2     :    -0.006648  d :    -0.014074
      dxz     :     0.000000
      dyz     :    -0.000000
      dx2y2   :    -0.003713
      dxy     :    -0.003713
  1 H s       :    -0.038923  s :    -0.038923
      pz      :     0.020293  p :     0.026943
      px      :     0.006089
      py      :     0.000561
  2 H s       :    -0.038923  s :    -0.038923
      pz      :     0.020293  p :     0.026943
      px      :     0.001943
      py      :     0.004707
  3 H s       :    -0.038923  s :    -0.038923
      pz      :     0.020293  p :     0.026943
      px      :     0.001943
      py      :     0.004707


                      *****************************
                      * MAYER POPULATION ANALYSIS *
                      *****************************

  NA   - Mulliken gross atomic population
  ZA   - Total nuclear charge
  QA   - Mulliken gross atomic charge
  VA   - Mayer's total valence
  BVA  - Mayer's bonded valence
  FA   - Mayer's free valence

  ATOM       NA         ZA         QA         VA         BVA        FA
  0 C      6.2746     6.0000    -0.2746     3.9310     2.9317     0.9993
  1 H      0.9085     1.0000     0.0915     0.9755     0.9652     0.0103
  2 H      0.9085     1.0000     0.0915     0.9755     0.9652     0.0103
  3 H      0.9085     1.0000     0.0915     0.9755     0.9652     0.0103

  Mayer bond orders larger than 0.100000
B(  0-C ,  1-H ) :   0.9772 B(  0-C ,  2-H ) :   0.9772 B(  0-C ,  3-H ) :   0.9772 


Now starting NBO....

[...]
                                         0.0000
  39. (0.00045) RY ( 3) H  4            s(  0.00%)p 1.00(100.00%)
                                         0.0000  0.0000  0.0000  0.0000  0.0000
                                         1.0000
  40. (0.00023) RY ( 4) H  4            s( 81.41%)p 0.23( 18.59%)
                                        -0.0127  0.2094  0.8775  0.2156  0.3734
                                         0.0000
  41. (0.00011) RY ( 5) H  4            s( 34.06%)p 1.94( 65.94%)
                                         0.0287 -0.3324  0.4788 -0.4060 -0.7033
                                         0.0000


 NHO DIRECTIONALITY AND BOND BENDING (deviation from line of nuclear centers at
                                      the position of maximum hybrid amplitude)

         [Thresholds for printing:  angular deviation  >  1.0 degree]
                                    p- or d-character  > 25.0%
                                    orbital occupancy  >  0.10e

                        Line of Centers        Hybrid 1             Hybrid 2
                        ---------------  -------------------  ------------------
           NBO            Theta   Phi    Theta   Phi    Dev   Theta   Phi    Dev
 ===============================================================================
    None exceeding thresholds


 NATURAL BOND ORBITALS (Summary):

           NBO                 Occupancy
 ========================================
 Molecular unit  1  (CH3)
 ------ Lewis ---------------------------
    1. CR ( 1) C  1             0.99957
    2. BD ( 1) C  1- H  2       0.98635
    3. BD ( 1) C  1- H  3       0.98635
    4. BD ( 1) C  1- H  4       0.98635
 ------ non-Lewis -----------------------
    5. LV ( 1) C  1             0.00337
    6. BD*( 1) C  1- H  2       0.00599
    7. BD*( 1) C  1- H  3       0.00599
    8. BD*( 1) C  1- H  4       0.00599
    9. RY ( 1) C  1             0.00291
   10. RY ( 2) C  1             0.00291
   11. RY ( 3) C  1             0.00144
   12. RY ( 4) C  1             0.00123
   13. RY ( 5) C  1             0.00123
   14. RY ( 6) C  1             0.00062
   15. RY ( 7) C  1             0.00062
   16. RY ( 8) C  1             0.00026
   17. RY ( 9) C  1             0.00022
   18. RY (10) C  1             0.00016
   19. RY (11) C  1             0.00013
   20. RY (12) C  1             0.00013
   21. RY (13) C  1             0.00009
   22. RY (14) C  1             0.00009
   23. RY (15) C  1             0.00007
   24. RY (16) C  1             0.00007
   25. RY (17) C  1             0.00005
   26. RY (18) C  1             0.00004
   27. RY ( 1) H  2             0.00131
   28. RY ( 2) H  2             0.00049
   29. RY ( 3) H  2             0.00045
   30. RY ( 4) H  2             0.00023
   31. RY ( 5) H  2             0.00011
   32. RY ( 1) H  3             0.00131
   33. RY ( 2) H  3             0.00049
   34. RY ( 3) H  3             0.00045
   35. RY ( 4) H  3             0.00023
   36. RY ( 5) H  3             0.00011
   37. RY ( 1) H  4             0.00131
   38. RY ( 2) H  4             0.00049
   39. RY ( 3) H  4             0.00045
   40. RY ( 4) H  4             0.00023
   41. RY ( 5) H  4             0.00011
          -------------------------------
                 Total Lewis    3.95863  ( 98.9658%)
           Valence non-Lewis    0.02134  (  0.5335%)
           Rydberg non-Lewis    0.02003  (  0.5008%)
          -------------------------------
               Total unit  1    4.00000  (100.0000%)
              Charge unit  1    0.50000

 $CHOOSE
  ALPHA
   LONE 1 1 END
   BOND S 1 2 S 1 3 S 1 4 END
  END
  BETA
   BOND S 1 2 S 1 3 S 1 4 END
  END
 $END

 NBO analysis completed in 0.07 CPU seconds (0 wall seconds)
 Maximum scratch memory used by NBO was 332973 words (2.54 MB)
Stopping NBO...Storing NBOs: CH3·.pmp2re.nbo

                                *** returned from   NBO  program ***


----------------------------------
MP2 DERIVATIVE INTEGRAL GENERATION
----------------------------------


Input Wavefunction Amplitudes       ... CH3·.mp2tbb.tmp
Input Correlated Electron Density   ... CH3·.pmp2re
Input Energy Weighted Density       ... CH3·.wmp2.tmp
Input SCF Electron Density          ... CH3·.scfp

One-Electron Terms    ...
                        ... One-Electron Terms done
Prescreening matrices              ... done

Batch handling in the gradient evaluation:
Memory available                      ... 3000.0 MB
Memory per occupied orbital in Q2     ...    0.1 MB
Memory per occupied orbital in Q3     ...    0.0 MB
Total memory requirement per |i>      ...    0.1 MB
Max. Number of orbitals possible      ...  24341
Number of orbitals treated per batch  ...      9
Number of batches to be done          ...      1
Batch   0: i=    0 ...     8

---------------------------------------
MP2 TOTAL ENERGY:      -39.734193510 Eh
---------------------------------------

-----------------------------------
NORM OF THE MP2 GRADIENT:  0.000001
-----------------------------------

-------------------------   --------------------
FINAL SINGLE POINT ENERGY       -39.734193510082
-------------------------   --------------------

                                *** OPTIMIZATION RUN DONE ***

                            ***************************************
                            *     ORCA property calculations      *
                            ***************************************

                                    ---------------------
                                    Active property flags
                                    ---------------------
   (+) Dipole Moment


------------------------------------------------------------------------------
                       ORCA ELECTRIC PROPERTIES CALCULATION
------------------------------------------------------------------------------

Dipole Moment Calculation                       ... on
Quadrupole Moment Calculation                   ... off
Polarizability Calculation                      ... off
GBWName                                         ... CH3·.gbw
Electron density file                           ... CH3·.scfp
The origin for moment calculation is the CENTER OF MASS  = ( 0.000000, -0.000000  0.000000)

-------------
DIPOLE MOMENT
-------------
                                X             Y             Z
Electronic contribution:     -0.00000      -0.00000       0.00000
Nuclear contribution   :      0.00000       0.00000      -0.00000
                        -----------------------------------------
Total Dipole Moment    :      0.00000      -0.00000      -0.00000
                        -----------------------------------------
Magnitude (a.u.)       :      0.00000
Magnitude (Debye)      :      0.00000



--------------------
Rotational spectrum 
--------------------
 
Rotational constants in cm-1:     9.618280     9.618277     4.809139 
Rotational constants in MHz : 288348.774661 288348.677216 144174.362969 

 Dipole components along the rotational axes: 
x,y,z [a.u.] :     0.000000     0.000000    -0.000000 
x,y,z [Debye]:     0.000000     0.000000    -0.000000 

 

                         *** MP2 UNRELAXED DENSITY ***

------------------------------------------------------------------------------
                       ORCA ELECTRIC PROPERTIES CALCULATION
------------------------------------------------------------------------------

Dipole Moment Calculation                       ... on
Quadrupole Moment Calculation                   ... off
Polarizability Calculation                      ... off
GBWName                                         ... CH3·.gbw
Electron density file                           ... CH3·.pmp2ur
The origin for moment calculation is the CENTER OF MASS  = ( 0.000000, -0.000000  0.000000)

-------------
DIPOLE MOMENT
-------------
                                X             Y             Z
Electronic contribution:     -0.00000      -0.00000       0.00000
Nuclear contribution   :      0.00000       0.00000      -0.00000
                        -----------------------------------------
Total Dipole Moment    :      0.00000      -0.00000      -0.00000
                        -----------------------------------------
Magnitude (a.u.)       :      0.00000
Magnitude (Debye)      :      0.00000



--------------------
Rotational spectrum 
--------------------
 
Rotational constants in cm-1:     9.618280     9.618277     4.809139 
Rotational constants in MHz : 288348.774661 288348.677216 144174.362969 

 Dipole components along the rotational axes: 
x,y,z [a.u.] :     0.000000     0.000000    -0.000000 
x,y,z [Debye]:     0.000000     0.000000    -0.000000 

 

                           *** MP2 RELAXED DENSITY ***

------------------------------------------------------------------------------
                       ORCA ELECTRIC PROPERTIES CALCULATION
------------------------------------------------------------------------------

Dipole Moment Calculation                       ... on
Quadrupole Moment Calculation                   ... off
Polarizability Calculation                      ... off
GBWName                                         ... CH3·.gbw
Electron density file                           ... CH3·.pmp2re
The origin for moment calculation is the CENTER OF MASS  = ( 0.000000, -0.000000  0.000000)

-------------
DIPOLE MOMENT
-------------
                                X             Y             Z
Electronic contribution:     -0.00000      -0.00000       0.00000
Nuclear contribution   :      0.00000       0.00000      -0.00000
                        -----------------------------------------
Total Dipole Moment    :      0.00000      -0.00000      -0.00000
                        -----------------------------------------
Magnitude (a.u.)       :      0.00000
Magnitude (Debye)      :      0.00000



--------------------
Rotational spectrum 
--------------------
 
Rotational constants in cm-1:     9.618280     9.618277     4.809139 
Rotational constants in MHz : 288348.774661 288348.677216 144174.362969 

 Dipole components along the rotational axes: 
x,y,z [a.u.] :     0.000000     0.000000    -0.000000 
x,y,z [Debye]:     0.000000     0.000000    -0.000000 

 
------------------------------------------------------------------------------
                         ORCA MP2 H E S S I A N CALCULATION
------------------------------------------------------------------------------

Calculating analytic MP2 second derivatives ... (>CH3·.last_mp2) done

-----------------------
VIBRATIONAL FREQUENCIES
-----------------------

Scaling factor for frequencies =  1.000000000  (already applied!)

   0:         0.00 cm**-1
   1:         0.00 cm**-1
   2:         0.00 cm**-1
   3:         0.00 cm**-1
   4:         0.00 cm**-1
   5:         0.00 cm**-1
   6:       418.97 cm**-1
   7:      1457.28 cm**-1
   8:      1457.31 cm**-1
   9:      3172.93 cm**-1
  10:      3361.48 cm**-1
  11:      3361.50 cm**-1


------------
NORMAL MODES
------------

These modes are the Cartesian displacements weighted by the diagonal matrix
M(i,i)=1/sqrt(m[i]) where m[i] is the mass of the displaced atom
Thus, these vectors are normalized but *not* orthogonal

                  0          1          2          3          4          5    
      0       0.000000   0.000000   0.000000   0.000000   0.000000   0.000000
      1       0.000000   0.000000   0.000000   0.000000   0.000000   0.000000
      2       0.000000   0.000000   0.000000   0.000000   0.000000   0.000000
      3       0.000000   0.000000   0.000000   0.000000   0.000000   0.000000
      4       0.000000   0.000000   0.000000   0.000000   0.000000   0.000000
      5       0.000000   0.000000   0.000000   0.000000   0.000000   0.000000
      6       0.000000   0.000000   0.000000   0.000000   0.000000   0.000000
      7       0.000000   0.000000   0.000000   0.000000   0.000000   0.000000
      8       0.000000   0.000000   0.000000   0.000000   0.000000   0.000000
      9       0.000000   0.000000   0.000000   0.000000   0.000000   0.000000
     10       0.000000   0.000000   0.000000   0.000000   0.000000   0.000000
     11       0.000000   0.000000   0.000000   0.000000   0.000000   0.000000
                  6          7          8          9         10         11    
      0      -0.000000  -0.092272  -0.000000   0.000002   0.000000   0.100452
      1       0.000000  -0.000000   0.092270  -0.000000  -0.100454   0.000000
      2       0.143847  -0.000000  -0.000000   0.000000  -0.000000   0.000000
      3      -0.000000  -0.076422  -0.000000   0.577335  -0.000001  -0.812253
      4      -0.000000   0.000001  -0.809412  -0.000000  -0.014257   0.000000
      5      -0.571346   0.000000   0.000000  -0.000000   0.000000  -0.000000
      6       0.000000   0.587953  -0.383585  -0.288681  -0.357884  -0.192347
      7      -0.000000   0.383581  -0.145020   0.500005   0.605617   0.357881
      8      -0.571346   0.000000   0.000000  -0.000000   0.000000  -0.000000
      9       0.000000   0.587952   0.383587  -0.288681   0.357884  -0.192348
     10       0.000000  -0.383581  -0.145021  -0.500005   0.605616  -0.357883
     11      -0.571346   0.000000   0.000000  -0.000000   0.000000  -0.000000


-----------
IR SPECTRUM
-----------

 Mode    freq (cm**-1)   T**2         TX         TY         TZ
-------------------------------------------------------------------
   6:       418.97   74.827306  (  0.000000   0.000000  -8.650278)
   7:      1457.28    2.355625  (  1.534804   0.000002   0.000000)
   8:      1457.31    2.342984  (  0.000002  -1.530681   0.000000)
   9:      3172.93    0.000000  ( -0.000100  -0.000000  -0.000000)
  10:      3361.48    2.092176  (  0.000002  -1.446436   0.000000)
  11:      3361.50    2.096680  (  1.447992   0.000002  -0.000000)

The first frequency considered to be a vibration is 6
The total number of vibrations considered is 6


--------------------------
THERMOCHEMISTRY AT 298.15K
--------------------------

Temperature         ... 298.15 K
Pressure            ... 1.00 atm
Total Mass          ... 15.03 AMU

Throughout the following assumptions are being made:
  (1) The electronic state is orbitally nondegenerate
      but the spin degeneracy is treated
  (2) There are no thermally accessible electronically excited states
  (3) Hindered rotations indicated by low frequency modes are not
      treated as such but are treated as vibrations and this may
      cause some error
  (4) All equations used are the standard statistical mechanics
      equations for an ideal gas
  (5) All vibrations are strictly harmonic

freq.     418.97  E(vib)   ...       0.18 
freq.    1457.28  E(vib)   ...       0.00 
freq.    1457.31  E(vib)   ...       0.00 
freq.    3172.93  E(vib)   ...       0.00 
freq.    3361.48  E(vib)   ...       0.00 
freq.    3361.50  E(vib)   ...       0.00 

------------
INNER ENERGY
------------

The inner energy is: U= E(el) + E(ZPE) + E(vib) + E(rot) + E(trans)
    E(el)   - is the total energy from the electronic structure calculation
              = E(kin-el) + E(nuc-el) + E(el-el) + E(nuc-nuc)
    E(ZPE)  - the the zero temperature vibrational energy from the frequency calculation
    E(vib)  - the the finite temperature correction to E(ZPE) due to population
              of excited vibrational states
    E(rot)  - is the rotational thermal energy
    E(trans)- is the translational thermal energy

Summary of contributions to the inner energy U:
Electronic energy                ...    -39.73419351 Eh
Zero point energy                ...      0.03013896 Eh      18.91 kcal/mol
Thermal vibrational correction   ...      0.00030311 Eh       0.19 kcal/mol
Thermal rotational correction    ...      0.00141627 Eh       0.89 kcal/mol
Thermal translational correction ...      0.00141627 Eh       0.89 kcal/mol
-----------------------------------------------------------------------
Total thermal energy                    -39.70091890 Eh


Summary of corrections to the electronic energy:
(perhaps to be used in another calculation)
Total thermal correction                  0.00313565 Eh       1.97 kcal/mol
Non-thermal (ZPE) correction              0.03013896 Eh      18.91 kcal/mol
-----------------------------------------------------------------------
Total correction                          0.03327461 Eh      20.88 kcal/mol


--------
ENTHALPY
--------

The enthalpy is H = U + kB*T
                kB is Boltzmann's constant
Total free energy                 ...    -39.70091890 Eh 
Thermal Enthalpy correction       ...      0.00094421 Eh       0.59 kcal/mol
-----------------------------------------------------------------------
Total Enthalpy                    ...    -39.69997469 Eh


Note: Rotational entropy computed according to Herzberg 
Infrared and Raman Spectra, Chapter V,1, Van Nostrand Reinhold, 1945 
Point Group:  D3h, Symmetry Number:   6  
Rotational constants in cm-1:     9.618280     9.618277     4.809139 

Vibrational entropy computed according to the QRRHO of S. Grimme
Chem.Eur.J. 2012 18 9955


-------
ENTROPY
-------

The entropy contributions are T*S = T*(S(el)+S(vib)+S(rot)+S(trans))
     S(el)   - electronic entropy
     S(vib)  - vibrational entropy
     S(rot)  - rotational entropy
     S(trans)- translational entropy
The entropies will be listed as mutliplied by the temperature to get
units of energy

Electronic entropy                ...      0.00065446 Eh      0.41 kcal/mol
Vibrational entropy               ...      0.00043971 Eh      0.28 kcal/mol
Rotational entropy                ...      0.00494033 Eh      3.10 kcal/mol
Translational entropy             ...      0.01618771 Eh     10.16 kcal/mol
-----------------------------------------------------------------------
Final entropy term                ...      0.02222220 Eh     13.94 kcal/mol

In case the symmetry of your molecule has not been determined correctly
or in case you have a reason to use a different symmetry number we print 
out the resulting rotational entropy values for sn=1,12 :
 --------------------------------------------------------
|  sn= 1 | S(rot)=       0.00663207 Eh      4.16 kcal/mol|
|  sn= 2 | S(rot)=       0.00597762 Eh      3.75 kcal/mol|
|  sn= 3 | S(rot)=       0.00559479 Eh      3.51 kcal/mol|
|  sn= 4 | S(rot)=       0.00532316 Eh      3.34 kcal/mol|
|  sn= 5 | S(rot)=       0.00511247 Eh      3.21 kcal/mol|
|  sn= 6 | S(rot)=       0.00494033 Eh      3.10 kcal/mol|
|  sn= 7 | S(rot)=       0.00479478 Eh      3.01 kcal/mol|
|  sn= 8 | S(rot)=       0.00466870 Eh      2.93 kcal/mol|
|  sn= 9 | S(rot)=       0.00455750 Eh      2.86 kcal/mol|
|  sn=10 | S(rot)=       0.00445802 Eh      2.80 kcal/mol|
|  sn=11 | S(rot)=       0.00436803 Eh      2.74 kcal/mol|
|  sn=12 | S(rot)=       0.00428587 Eh      2.69 kcal/mol|
 --------------------------------------------------------


-------------------
GIBBS FREE ENERGY
-------------------

The Gibbs free energy is G = H - T*S

Total enthalpy                    ...    -39.69997469 Eh 
Total entropy correction          ...     -0.02222220 Eh    -13.94 kcal/mol
-----------------------------------------------------------------------
Final Gibbs free energy         ...    -39.72219690 Eh

For completeness - the Gibbs free energy minus the electronic energy
G-E(el)                           ...      0.01199661 Eh      7.53 kcal/mol


Timings for individual modules:

Sum of individual times         ...       29.735 sec (=   0.496 min)
GTO integral calculation        ...        2.156 sec (=   0.036 min)   7.3 %
SCF iterations                  ...        8.495 sec (=   0.142 min)  28.6 %
MP2 module                      ...        7.735 sec (=   0.129 min)  26.0 %
Geometry relaxation             ...        0.052 sec (=   0.001 min)   0.2 %
Analytical frequency calculation...       11.297 sec (=   0.188 min)  38.0 %
                             ****ORCA TERMINATED NORMALLY****
TOTAL RUN TIME: 0 days 0 hours 0 minutes 30 seconds 317 msec
