
                                 *****************
                                 * O   R   C   A *
                                 *****************

           --- An Ab Initio, DFT and Semiempirical electronic structure package ---

                  #######################################################
                  #                        -***-                        #
                  #          Department of theory and spectroscopy      #
                  #               Directorship: Frank Neese             #
                  #        Max Planck Institute fuer Kohlenforschung    #
                  #                Kaiser Wilhelm Platz 1               #
                  #                 D-45470 Muelheim/Ruhr               #
                  #                      Germany                        #
                  #                                                     #
                  #                  All rights reserved                #
                  #                        -***-                        #
                  #######################################################


                         Program Version 4.2.1 -  RELEASE  -


 With contributions from (in alphabetic order):
   Daniel Aravena         : Magnetic Suceptibility
   Michael Atanasov       : Ab Initio Ligand Field Theory (pilot matlab implementation)
   Alexander A. Auer      : GIAO ZORA, VPT2
   Ute Becker             : Parallelization
   Giovanni Bistoni       : ED, misc. LED, open-shell LED, HFLD
   Martin Brehm           : Molecular dynamics
   Dmytro Bykov           : SCF Hessian
   Vijay G. Chilkuri      : MRCI spin determinant printing, contributions to CSF-ICE
   Dipayan Datta          : RHF DLPNO-CCSD density
   Achintya Kumar Dutta   : EOM-CC, STEOM-CC
   Dmitry Ganyushin       : Spin-Orbit,Spin-Spin,Magnetic field MRCI
   Miquel Garcia          : C-PCM Hessian, Gaussian charge scheme
   Yang Guo               : DLPNO-NEVPT2, CIM, IAO-localization
   Andreas Hansen         : Spin unrestricted coupled pair/coupled cluster methods
   Benjamin Helmich-Paris : CASSCF linear response (MC-RPA)
   Lee Huntington         : MR-EOM, pCC
   Robert Izsak           : Overlap fitted RIJCOSX, COSX-SCS-MP3, EOM
   Christian Kollmar      : KDIIS, OOCD, Brueckner-CCSD(T), CCSD density
   Simone Kossmann        : Meta GGA functionals, TD-DFT gradient, OOMP2, MP2 Hessian
   Martin Krupicka        : AUTO-CI
   Lucas Lang             : DCDCAS
   Dagmar Lenk            : GEPOL surface, SMD
   Dimitrios Liakos       : Extrapolation schemes; Compound Job, initial MDCI parallelization
   Dimitrios Manganas     : Further ROCIS development; embedding schemes
   Dimitrios Pantazis     : SARC Basis sets
   Taras Petrenko         : DFT Hessian,TD-DFT gradient, ASA, ECA, R-Raman, ABS, FL, XAS/XES, NRVS
   Peter Pinski           : DLPNO-MP2, DLPNO-MP2 Gradient
   Christoph Reimann      : Effective Core Potentials
   Marius Retegan         : Local ZFS, SOC
   Christoph Riplinger    : Optimizer, TS searches, QM/MM, DLPNO-CCSD(T), (RO)-DLPNO pert. Triples
   Tobias Risthaus        : Range-separated hybrids, TD-DFT gradient, RPA, STAB
   Michael Roemelt        : Original ROCIS implementation
   Masaaki Saitow         : Open-shell DLPNO-CCSD energy and density
   Barbara Sandhoefer     : DKH picture change effects
   Avijit Sen             : IP-ROCIS
   Kantharuban Sivalingam : CASSCF convergence, NEVPT2, FIC-MRCI
   Bernardo de Souza      : ESD, SOC TD-DFT
   Georgi Stoychev        : AutoAux, RI-MP2 NMR
   Willem Van den Heuvel  : Paramagnetic NMR
   Boris Wezisla          : Elementary symmetry handling
   Frank Wennmohs         : Technical directorship


 We gratefully acknowledge several colleagues who have allowed us to
 interface, adapt or use parts of their codes:
   Stefan Grimme, W. Hujo, H. Kruse,             : VdW corrections, initial TS optimization,
                  C. Bannwarth                     DFT functionals, gCP, sTDA/sTD-DF
   Ed Valeev, F. Pavosevic, A. Kumar             : LibInt (2-el integral package), F12 methods
   Garnet Chan, S. Sharma, J. Yang, R. Olivares  : DMRG
   Ulf Ekstrom                                   : XCFun DFT Library
   Mihaly Kallay                                 : mrcc  (arbitrary order and MRCC methods)
   Andreas Klamt, Michael Diedenhofen            : otool_cosmo (COSMO solvation model)
   Jiri Pittner, Ondrej Demel                    : Mk-CCSD
   Frank Weinhold                                : gennbo (NPA and NBO analysis)
   Christopher J. Cramer and Donald G. Truhlar   : smd solvation model
   Lars Goerigk                                  : TD-DFT with DH, B97 family of functionals
   V. Asgeirsson, H. Jonsson                     : NEB implementation
   FAccTs GmbH                                   : IRC, NEB, NEB-TS, Multilevel, MM, QM/MM, CI optimization
   S Lehtola, MJT Oliveira, MAL Marques          : LibXC Library


 Your calculation uses the libint2 library for the computation of 2-el integrals
 For citations please refer to: http://libint.valeyev.net

 Your ORCA version has been built with support for libXC version: 4.2.3
 For citations please refer to: https://tddft.org/programs/libxc/

 This ORCA versions uses:
   CBLAS   interface :  Fast vector & matrix operations
   LAPACKE interface :  Fast linear algebra routines
   SCALAPACK package :  Parallel linear algebra routines


----- Orbital basis set information -----
Your calculation utilizes the basis: 6-311G(2d,p)
   H, Li - Ne  : R. Krishnan, J. S. Binkley, R. Seeger and J. A. Pople, J. Chem. Phys. 72, 650 (1980).
   Na - Ar     : A. D. McLean and G. S. Chandler J. Chem. Phys. 72, 5639, (1980).
   K  - Ca     : J.-P. Blaudeau, M. P. McGrath, L. A. Curtiss and L. Radom, J. Chem. Phys. 107, 5016 (1997).
   Ga - Kr     : L. A. Curtiss, M. P. McGrath, J.-P. Blandeau, N. E. Davis, R. C. Binning and L. Radom, J. Chem. Phys. 103, 6104 (1995).
   Pol./Diff.
   H, Li - Cl  : T. Clark, J. Chandrasekhar and P. v. R. Schleyer, J. Comp. Chem. 4, 294 (1983).
   H - Ne      : M. J. Frisch, J. A. Pople and J. S. Binkley, J. Chem. Phys. 80, 3265 (1984).

================================================================================
                                        WARNINGS
                       Please study these warnings very carefully!
================================================================================


WARNING: No MP2 level density has been requested!
         To caclulate MP2 level properties use
         %mp2 Density relaxed end
         or
         %mp2 Density unrelaxed end

WARNING: Post HF methods need fully converged wavefunctions
  ===> : Setting SCFConvForced true
         You can overwrite this default with %scf ConvForced false 


INFO   : the flag for use of LIBINT has been found!

================================================================================
                                       INPUT FILE
================================================================================
NAME = Cl·.inp
|  1> ! UHF MP2 6-311G(2d,p) Freq NoFrozenCore TightSCF Grid4 FinalGrid5 PrintBasis PrintMOs NBO
|  2> %maxcore 3000
|  3> 
|  4> *xyz 0 2
|  5> Cl       0.000000000      0.000000000      0.000000000
|  6> *
|  7> 
|  8> %pal
|  9>  nprocs 12
| 10> end
| 11> 
| 12>                          ****END OF INPUT****
================================================================================

                       ****************************
                       * Single Point Calculation *
                       ****************************

---------------------------------
CARTESIAN COORDINATES (ANGSTROEM)
---------------------------------
  Cl     0.000000    0.000000    0.000000

----------------------------
CARTESIAN COORDINATES (A.U.)
----------------------------
  NO LB      ZA    FRAG     MASS         X           Y           Z
   0 Cl   17.0000    0    35.453    0.000000    0.000000    0.000000

--------------------------------
INTERNAL COORDINATES (ANGSTROEM)
--------------------------------
 Cl     0   0   0     0.000000000000     0.00000000     0.00000000

---------------------------
INTERNAL COORDINATES (A.U.)
---------------------------
 Cl     0   0   0     0.000000000000     0.00000000     0.00000000

---------------------
BASIS SET INFORMATION
---------------------
There are 1 groups of distinct atoms

 Group   1 Type Cl  : 13s10p2d contracted to 6s5p2d pattern {631111/52111/11}

Atom   0Cl   basis set group =>   1

-------------------------
BASIS SET IN INPUT FORMAT
-------------------------

 # Basis set for element : Cl
 NewGTO Cl
 S 6 
   1  105819.0000000000      0.0007380002
   2   15872.0000000000      0.0057180019
   3    3619.6500000000      0.0294950099
   4    1030.8000000000      0.1172860392
   5     339.9080000000      0.3629491212
   6     124.5380000000      0.5841491951
 S 3 
   1     124.5380000000      0.1341769734
   2      49.5135000000      0.6242498762
   3      20.8056000000      0.2917559421
 S 1 
   1       6.5834600000      1.0000000000
 S 1 
   1       2.5646800000      1.0000000000
 S 1 
   1       0.5597630000      1.0000000000
 S 1 
   1       0.1832730000      1.0000000000
 P 5 
   1     589.7760000000      0.0023909997
   2     139.8490000000      0.0185039976
   3      45.1413000000      0.0813769893
   4      16.8733000000      0.2215519708
   5       6.7411000000      0.7725688983
 P 2 
   1       6.7411000000     -1.5722438126
   2       2.7715200000      0.9923888817
 P 1 
   1       1.0238700000      1.0000000000
 P 1 
   1       0.3813680000      1.0000000000
 P 1 
   1       0.1094370000      1.0000000000
 D 1 
   1       1.5000000000      1.0000000000
 D 1 
   1       0.3750000000      1.0000000000
  end;



           ************************************************************
           *        Program running with 12 parallel MPI-processes    *
           *              working on a common directory               *
           ************************************************************
------------------------------------------------------------------------------
                           ORCA GTO INTEGRAL CALCULATION
------------------------------------------------------------------------------

                         BASIS SET STATISTICS AND STARTUP INFO

 # of primitive gaussian shells          ...   25
 # of primitive gaussian functions       ...   53
 # of contracted shells                  ...   13
 # of contracted basis functions         ...   31
 Highest angular momentum                ...    2
 Maximum contraction depth               ...    6
 Integral package used                   ... LIBINT
 Integral threshhold            Thresh   ...  2.500e-11
 Primitive cut-off              TCut     ...  2.500e-12


------------------------------ INTEGRAL EVALUATION ----------------------------


 * One electron integrals 
 Pre-screening matrix                    ... done
 Shell pair data                         ... done (   0.000 sec)



           ************************************************************
           *        Program running with 12 parallel MPI-processes    *
           *              working on a common directory               *
           ************************************************************
-------------------------------------------------------------------------------
                                 ORCA SCF
-------------------------------------------------------------------------------

------------
SCF SETTINGS
------------
Hamiltonian:
 Ab initio Hamiltonian  Method          .... Hartree-Fock(GTOs)


General Settings:
 Integral files         IntName         .... Cl·
 Hartree-Fock type      HFTyp           .... UHF
 Total Charge           Charge          ....    0
 Multiplicity           Mult            ....    2
 Number of Electrons    NEL             ....   17
 Basis Dimension        Dim             ....   31
 Nuclear Repulsion      ENuc            ....      0.0000000000 Eh

Convergence Acceleration:
 DIIS                   CNVDIIS         .... on
   Start iteration      DIISMaxIt       ....    12
   Startup error        DIISStart       ....  0.200000
   # of expansion vecs  DIISMaxEq       ....     5
   Bias factor          DIISBfac        ....   1.050
   Max. coefficient     DIISMaxC        ....  10.000
 Newton-Raphson         CNVNR           .... off
 SOSCF                  CNVSOSCF        .... off
 Level Shifting         CNVShift        .... on
   Level shift para.    LevelShift      ....    0.2500
   Turn off err/grad.   ShiftErr        ....    0.0010
 Zerner damping         CNVZerner       .... off
 Static damping         CNVDamp         .... on
   Fraction old density DampFac         ....    0.7000
   Max. Damping (<1)    DampMax         ....    0.9800
   Min. Damping (>=0)   DampMin         ....    0.0000
   Turn off err/grad.   DampErr         ....    0.1000
 Fernandez-Rico         CNVRico         .... off

SCF Procedure:
 Maximum # iterations   MaxIter         ....   125
 SCF integral mode      SCFMode         .... Direct
   Integral package                     .... LIBINT
 Reset frequency        DirectResetFreq ....    20
 Integral Threshold     Thresh          ....  2.500e-11 Eh
 Primitive CutOff       TCut            ....  2.500e-12 Eh

Convergence Tolerance:
 Convergence Check Mode ConvCheckMode   .... Total+1el-Energy
 Convergence forced     ConvForced      .... 1
 Energy Change          TolE            ....  1.000e-08 Eh
 1-El. energy change                    ....  1.000e-05 Eh
 DIIS Error             TolErr          ....  5.000e-07


Diagonalization of the overlap matrix:
Smallest eigenvalue                        ... 2.919e-02
Time for diagonalization                   ...    0.002 sec
Threshold for overlap eigenvalues          ... 1.000e-08
Number of eigenvalues below threshold      ... 0
Time for construction of square roots      ...    0.005 sec
Total time needed                          ...    0.008 sec

-------------------
DFT GRID GENERATION
-------------------

General Integration Accuracy     IntAcc      ...  4.670
Radial Grid Type                 RadialGrid  ... Gauss-Chebyshev
Angular Grid (max. acc.)         AngularGrid ... Lebedev-302
Angular grid pruning method      GridPruning ... 3 (G Style)
Weight generation scheme         WeightScheme... Becke
Basis function cutoff            BFCut       ...    1.0000e-11
Integration weight cutoff        WCut        ...    1.0000e-14
Grids for H and He will be reduced by one unit

# of grid points (after initial pruning)     ...   6738 (   0.0 sec)
# of grid points (after weights+screening)   ...   6738 (   0.0 sec)
Grid point division into batches done        ...    0.1 sec
Reduced shell lists constructed in    0.1 sec

Total number of grid points                  ...     6738
Total number of batches                      ...      106
Average number of points per batch           ...       63
Average number of grid points per atom       ...     6738
Average number of shells per batch           ...     1.20 ( 9.23%)
Average number of basis functions per batch  ...     3.00 ( 9.68%)
Average number of large shells per batch     ...     0.90 (75.00%)
Average number of large basis fcns per batch ...     2.70 (90.00%)
Maximum spatial batch extension              ...  25.31, 17.78, 17.78 au
Average spatial batch extension              ...   1.61,  1.30,  1.27 au

Time for grid setup =    0.097 sec

------------------------------
INITIAL GUESS: MODEL POTENTIAL
------------------------------
Loading Hartree-Fock densities                     ... done
Calculating cut-offs                               ... done
Setting up the integral package                    ... done
Initializing the effective Hamiltonian             ... done
Starting the Coulomb interaction                   ... done (   0.0 sec)
Reading the grid                                   ... done
Mapping shells                                     ... done
Starting the XC term evaluation                    ... done (   0.0 sec)
Transforming the Hamiltonian                       ... done (   0.0 sec)
Diagonalizing the Hamiltonian                      ... done (   0.0 sec)
Back transforming the eigenvectors                 ... done (   0.0 sec)
Now organizing SCF variables                       ... done
                      ------------------
                      INITIAL GUESS DONE (   0.2 sec)
                      ------------------
--------------
SCF ITERATIONS
--------------
ITER       Energy         Delta-E        Max-DP      RMS-DP      [F,P]     Damp
               ***  Starting incremental Fock matrix formation  ***
  0   -459.4519435636   0.000000000000 0.01207493  0.00075370  0.6515136 0.7000
  1   -459.4578903889  -0.005946825311 0.01101248  0.00061551  0.4573465 0.7000
  2   -459.4622951959  -0.004404807016 0.00896175  0.00047300  0.3209665 0.7000
  3   -459.4655216011  -0.003226405164 0.00717014  0.00036222  0.2253023 0.7000
                               ***Turning on DIIS***
  4   -459.4678710024  -0.002349401300 0.00571911  0.00027849  0.1581811 0.7000
  5   -459.4600536633   0.007817339081 0.00519097  0.00024066  0.1110767 0.7000
  6   -459.4613840089  -0.001330345628 0.01442308  0.00064781  0.0778763 0.0000
  7   -459.4738220290  -0.012438020066 0.00168307  0.00007630  0.0015664 0.0000
  8   -459.4729911179   0.000830911116 0.00158091  0.00007428  0.0008508 0.0000
  9   -459.4738087118  -0.000817593884 0.00013818  0.00000942  0.0000925 0.0000
 10   -459.4739226745  -0.000113962754 0.00003324  0.00000206  0.0000091 0.0000
 11   -459.4739068353   0.000015839245 0.00001162  0.00000086  0.0000015 0.0000
                            ***DIIS convergence achieved***

               *****************************************************
               *                     SUCCESS                       *
               *           SCF CONVERGED AFTER  12 CYCLES          *
               *****************************************************


----------------
TOTAL SCF ENERGY
----------------

Total Energy       :         -459.47390562 Eh          -12502.92061 eV

Components:
Nuclear Repulsion  :            0.00000000 Eh               0.00000 eV
Electronic Energy  :         -459.47390562 Eh          -12502.92061 eV
One Electron Energy:         -634.79001365 Eh          -17273.51444 eV
Two Electron Energy:          175.31610803 Eh            4770.59383 eV

Virial components:
Potential Energy   :         -918.95480552 Eh          -25006.03154 eV
Kinetic Energy     :          459.48089990 Eh           12503.11093 eV
Virial Ratio       :            1.99998478


---------------
SCF CONVERGENCE
---------------

  Last Energy change         ...    1.2195e-06  Tolerance :   1.0000e-08
  Last MAX-Density change    ...    4.0985e-06  Tolerance :   1.0000e-07
  Last RMS-Density change    ...    3.1841e-07  Tolerance :   5.0000e-09
  Last DIIS Error            ...    2.9023e-07  Tolerance :   5.0000e-07

             **** THE GBW FILE WAS UPDATED (Cl·.gbw) ****
             **** DENSITY FILE WAS UPDATED (Cl·.scfp) ****
             **** ENERGY FILE WAS UPDATED (Cl·.en.tmp) ****
----------------------
UHF SPIN CONTAMINATION
----------------------

Expectation value of <S**2>     :     0.757855
Ideal value S*(S+1) for S=0.5   :     0.750000
Deviation                       :     0.007855

             **** THE GBW FILE WAS UPDATED (Cl·.gbw) ****
             **** DENSITY FILE WAS UPDATED (Cl·.scfp) ****
----------------
ORBITAL ENERGIES
----------------
                 SPIN UP ORBITALS
  NO   OCC          E(Eh)            E(eV) 
   0   1.0000    -104.892442     -2854.2685 
   1   1.0000     -10.616021      -288.8766 
   2   1.0000      -8.102552      -220.4816 
   3   1.0000      -8.077207      -219.7920 
   4   1.0000      -8.077207      -219.7920 
   5   1.0000      -1.138648       -30.9842 
   6   1.0000      -0.582236       -15.8434 
   7   1.0000      -0.505438       -13.7537 
   8   1.0000      -0.505438       -13.7537 
   9   0.0000       0.375331        10.2133 
  10   0.0000       0.406779        11.0690 
  11   0.0000       0.406779        11.0690 
  12   0.0000       0.586313        15.9544 
  13   0.0000       0.599867        16.3232 
  14   0.0000       0.599867        16.3232 
  15   0.0000       0.646305        17.5869 
  16   0.0000       0.646305        17.5869 
  17   0.0000       0.744667        20.2634 
  18   0.0000       2.370588        64.5070 
  19   0.0000       2.426117        66.0180 
  20   0.0000       2.426117        66.0180 
  21   0.0000       2.652838        72.1874 
  22   0.0000       2.666159        72.5499 
  23   0.0000       2.666159        72.5499 
  24   0.0000       2.708414        73.6997 
  25   0.0000       2.708414        73.6997 
  26   0.0000       9.923341       270.0278 
  27   0.0000      26.129559       711.0214 
  28   0.0000      26.174552       712.2458 
  29   0.0000      26.174552       712.2458 
  30   0.0000     218.715108      5951.5406 

                 SPIN DOWN ORBITALS
  NO   OCC          E(Eh)            E(eV) 
   0   1.0000    -104.881315     -2853.9657 
   1   1.0000     -10.604474      -288.5624 
   2   1.0000      -8.071144      -219.6270 
   3   1.0000      -8.071144      -219.6270 
   4   1.0000      -8.053601      -219.1496 
   5   1.0000      -1.016891       -27.6710 
   6   1.0000      -0.481022       -13.0893 
   7   1.0000      -0.481022       -13.0893 
   8   0.0000      -0.045890        -1.2487 
   9   0.0000       0.412903        11.2357 
  10   0.0000       0.412903        11.2357 
  11   0.0000       0.448711        12.2100 
  12   0.0000       0.653598        17.7853 
  13   0.0000       0.653598        17.7853 
  14   0.0000       0.685718        18.6593 
  15   0.0000       0.685718        18.6593 
  16   0.0000       0.698777        19.0147 
  17   0.0000       0.773902        21.0589 
  18   0.0000       2.436186        66.2920 
  19   0.0000       2.436186        66.2920 
  20   0.0000       2.451706        66.7143 
  21   0.0000       2.696131        73.3655 
  22   0.0000       2.700322        73.4795 
  23   0.0000       2.700322        73.4795 
  24   0.0000       2.712902        73.8218 
  25   0.0000       2.712902        73.8218 
  26   0.0000       9.941558       270.5235 
  27   0.0000      26.153638       711.6767 
  28   0.0000      26.179647       712.3844 
  29   0.0000      26.179647       712.3844 
  30   0.0000     218.721156      5951.7052 
------------------
MOLECULAR ORBITALS
------------------
                      0         1         2         3         4         5   
                 -104.89244 -10.61602  -8.10255  -8.07721  -8.07721  -1.13865
                   1.00000   1.00000   1.00000   1.00000   1.00000   1.00000
                  --------  --------  --------  --------  --------  --------
  0Cl  1s        -0.411715  0.121998 -0.000000 -0.000000 -0.000000  0.037159
  0Cl  2s        -0.654659  0.331593 -0.000000 -0.000000 -0.000000  0.107434
  0Cl  3s        -0.012130 -0.512284  0.000000  0.000000  0.000000 -0.211628
  0Cl  4s         0.000915 -0.605572  0.000000  0.000000  0.000000 -0.430442
  0Cl  5s        -0.000172 -0.040912  0.000000 -0.000000  0.000000  0.666120
  0Cl  6s         0.000084  0.007146 -0.000000 -0.000000  0.000000  0.554442
  0Cl  1pz        0.000000  0.000000  0.021833  0.492546 -1.128551 -0.000000
  0Cl  1px        0.000000 -0.000000 -1.219740 -0.141206 -0.085253  0.000000
  0Cl  1py        0.000000  0.000000  0.163398 -1.119896 -0.485603 -0.000000
  0Cl  2pz        0.000000  0.000000  0.005806  0.130898 -0.299921 -0.000000
  0Cl  2px        0.000000 -0.000000 -0.324383 -0.037527 -0.022657  0.000000
  0Cl  2py        0.000000  0.000000  0.043455 -0.297621 -0.129053 -0.000000
  0Cl  3pz       -0.000000 -0.000000  0.000890  0.019469 -0.044608  0.000000
  0Cl  3px       -0.000000  0.000000 -0.049740 -0.005581 -0.003370 -0.000000
  0Cl  3py       -0.000000 -0.000000  0.006663 -0.044266 -0.019194  0.000000
  0Cl  4pz        0.000000  0.000000 -0.000035 -0.000736  0.001686  0.000000
  0Cl  4px        0.000000 -0.000000  0.001976  0.000211  0.000127 -0.000000
  0Cl  4py        0.000000  0.000000 -0.000265  0.001673  0.000726  0.000000
  0Cl  5pz       -0.000000 -0.000000  0.000012  0.000235 -0.000539  0.000000
  0Cl  5px       -0.000000  0.000000 -0.000657 -0.000067 -0.000041 -0.000000
  0Cl  5py       -0.000000 -0.000000  0.000088 -0.000535 -0.000232 -0.000000
  0Cl  1dz2       0.000001  0.000684  0.000000  0.000000 -0.000000 -0.007425
  0Cl  1dxz       0.000000  0.000042  0.000000 -0.000000  0.000000 -0.000453
  0Cl  1dyz      -0.000000 -0.000006 -0.000000 -0.000000  0.000000  0.000061
  0Cl  1dx2y2    -0.000001 -0.001144  0.000000  0.000000 -0.000000  0.012415
  0Cl  1dxy       0.000000  0.000312 -0.000000  0.000000  0.000000 -0.003387
  0Cl  2dz2      -0.000000 -0.000089 -0.000000 -0.000000 -0.000000 -0.015195
  0Cl  2dxz      -0.000000 -0.000005 -0.000000 -0.000000  0.000000 -0.000926
  0Cl  2dyz       0.000000  0.000001  0.000000  0.000000 -0.000000  0.000124
  0Cl  2dx2y2     0.000001  0.000149 -0.000000 -0.000000  0.000000  0.025406
  0Cl  2dxy      -0.000000 -0.000041  0.000000 -0.000000  0.000000 -0.006931
                      6         7         8         9        10        11   
                  -0.58224  -0.50544  -0.50544   0.37533   0.40678   0.40678
                   1.00000   1.00000   1.00000   0.00000   0.00000   0.00000
                  --------  --------  --------  --------  --------  --------
  0Cl  1s         0.000000  0.000000  0.000000 -0.000000  0.000000 -0.000000
  0Cl  2s         0.000000  0.000000  0.000000 -0.000000  0.000000 -0.000000
  0Cl  3s        -0.000000 -0.000000 -0.000000  0.000000 -0.000000  0.000000
  0Cl  4s        -0.000000 -0.000000 -0.000000  0.000000 -0.000000  0.000000
  0Cl  5s         0.000000  0.000000  0.000000 -0.000000  0.000000 -0.000000
  0Cl  6s         0.000000  0.000000  0.000000  0.000000 -0.000000  0.000000
  0Cl  1pz        0.006222  0.302980 -0.158565  0.003201 -0.153558 -0.103946
  0Cl  1px       -0.347615  0.026384  0.037446 -0.178856 -0.016504  0.018564
  0Cl  1py        0.046567  0.156472  0.300718  0.023960 -0.102680  0.152467
  0Cl  2pz        0.001493  0.072313 -0.037845  0.000525 -0.024488 -0.016577
  0Cl  2px       -0.083382  0.006297  0.008937 -0.029325 -0.002632  0.002960
  0Cl  2py        0.011170  0.037345  0.071773  0.003928 -0.016375  0.024315
  0Cl  3pz       -0.004477 -0.220189  0.115236 -0.000867  0.037677  0.025504
  0Cl  3px        0.250108 -0.019175 -0.027214  0.048413  0.004049 -0.004555
  0Cl  3py       -0.033505 -0.113715 -0.218546 -0.006486  0.025194 -0.037410
  0Cl  4pz       -0.011379 -0.543342  0.284358 -0.016522  0.796321  0.539045
  0Cl  4px        0.635706 -0.047316 -0.067153  0.923045  0.085586 -0.096269
  0Cl  4py       -0.085160 -0.280605 -0.539286 -0.123652  0.532480 -0.790665
  0Cl  5pz       -0.004922 -0.280708  0.146909  0.022409 -1.040938 -0.704630
  0Cl  5px        0.274962 -0.024445 -0.034694 -1.251930 -0.111876  0.125842
  0Cl  5py       -0.036834 -0.144970 -0.278613  0.167710 -0.696050  1.033544
  0Cl  1dz2       0.000000 -0.000000 -0.000000  0.000000  0.000000 -0.000000
  0Cl  1dxz       0.000000  0.000000  0.000000  0.000000  0.000000 -0.000000
  0Cl  1dyz      -0.000000  0.000000  0.000000 -0.000000 -0.000000 -0.000000
  0Cl  1dx2y2     0.000000 -0.000000  0.000000  0.000000  0.000000 -0.000000
  0Cl  1dxy       0.000000 -0.000000  0.000000 -0.000000 -0.000000 -0.000000
  0Cl  2dz2       0.000000 -0.000000  0.000000  0.000000  0.000000 -0.000000
  0Cl  2dxz       0.000000  0.000000  0.000000  0.000000  0.000000 -0.000000
  0Cl  2dyz       0.000000  0.000000  0.000000 -0.000000 -0.000000  0.000000
  0Cl  2dx2y2     0.000000 -0.000000  0.000000  0.000000  0.000000 -0.000000
  0Cl  2dxy       0.000000 -0.000000  0.000000 -0.000000 -0.000000  0.000000
                     12        13        14        15        16        17   
                   0.58631   0.59987   0.59987   0.64630   0.64630   0.74467
                   0.00000   0.00000   0.00000   0.00000   0.00000   0.00000
                  --------  --------  --------  --------  --------  --------
  0Cl  1s        -0.001561  0.000000 -0.000000 -0.000000 -0.000000 -0.034301
  0Cl  2s        -0.004682  0.000000 -0.000000 -0.000000 -0.000000 -0.094089
  0Cl  3s         0.010724  0.000000  0.000000  0.000000  0.000000  0.141739
  0Cl  4s         0.015392 -0.000000  0.000000  0.000000  0.000000  0.654841
  0Cl  5s        -0.030428  0.000000 -0.000000 -0.000000  0.000000 -2.124681
  0Cl  6s        -0.017381 -0.000000  0.000000  0.000000 -0.000000  1.736630
  0Cl  1pz       -0.000000 -0.000000 -0.000000 -0.000000  0.000000 -0.000000
  0Cl  1px        0.000000  0.000000 -0.000000 -0.000000  0.000000  0.000000
  0Cl  1py        0.000000  0.000000 -0.000000 -0.000000  0.000000 -0.000000
  0Cl  2pz       -0.000000 -0.000000 -0.000000 -0.000000  0.000000 -0.000000
  0Cl  2px        0.000000  0.000000 -0.000000 -0.000000  0.000000  0.000000
  0Cl  2py        0.000000  0.000000 -0.000000 -0.000000  0.000000 -0.000000
  0Cl  3pz        0.000000  0.000000  0.000000  0.000000  0.000000 -0.000000
  0Cl  3px       -0.000000  0.000000  0.000000  0.000000 -0.000000 -0.000000
  0Cl  3py       -0.000000 -0.000000  0.000000  0.000000  0.000000 -0.000000
  0Cl  4pz        0.000000 -0.000000 -0.000000 -0.000000 -0.000000  0.000000
  0Cl  4px        0.000000 -0.000000 -0.000000 -0.000000 -0.000000 -0.000000
  0Cl  4py        0.000000 -0.000000  0.000000  0.000000 -0.000000  0.000000
  0Cl  5pz       -0.000000  0.000000 -0.000000  0.000000  0.000000 -0.000000
  0Cl  5px       -0.000000  0.000000  0.000000  0.000000  0.000000  0.000000
  0Cl  5py       -0.000000  0.000000  0.000000  0.000000  0.000000 -0.000000
  0Cl  1dz2      -0.094963 -0.005244 -0.002534  0.042813  0.155396  0.010860
  0Cl  1dxz      -0.005788  0.169273  0.081299  0.024698 -0.003410  0.000662
  0Cl  1dyz       0.000775 -0.021200 -0.013946  0.177759 -0.049429 -0.000089
  0Cl  1dx2y2     0.158781 -0.018785  0.046331  0.024700  0.086378 -0.018158
  0Cl  1dxy      -0.043318 -0.080358  0.164267 -0.003438 -0.024475  0.004954
  0Cl  2dz2      -0.448469 -0.024862 -0.012014  0.207179  0.751980 -0.005249
  0Cl  2dxz      -0.027335  0.802594  0.385471  0.119515 -0.016500 -0.000320
  0Cl  2dyz       0.003662 -0.100517 -0.066123  0.860195 -0.239194  0.000043
  0Cl  2dx2y2     0.749855 -0.089068  0.219676  0.119525  0.417994  0.008777
  0Cl  2dxy      -0.204574 -0.381013  0.778859 -0.016638 -0.118436 -0.002394
                     18        19        20        21        22        23   
                   2.37059   2.42612   2.42612   2.65284   2.66616   2.66616
                   0.00000   0.00000   0.00000   0.00000   0.00000   0.00000
                  --------  --------  --------  --------  --------  --------
  0Cl  1s        -0.000000 -0.000000 -0.000000 -0.000698  0.000000 -0.000000
  0Cl  2s        -0.000000 -0.000000  0.000000 -0.001759  0.000000  0.000000
  0Cl  3s        -0.000000  0.000000 -0.000000  0.001522 -0.000000 -0.000000
  0Cl  4s         0.000000 -0.000000  0.000000  0.017080 -0.000000  0.000000
  0Cl  5s        -0.000000  0.000000 -0.000000 -0.046342  0.000000 -0.000000
  0Cl  6s         0.000000 -0.000000  0.000000  0.029972 -0.000000  0.000000
  0Cl  1pz       -0.013909  0.773139  0.132252  0.000000  0.000000  0.000000
  0Cl  1px        0.777057  0.031158 -0.100344  0.000000 -0.000000  0.000000
  0Cl  1py       -0.104095  0.129281 -0.766726 -0.000000 -0.000000  0.000000
  0Cl  2pz       -0.004608  0.255981  0.043788  0.000000 -0.000000  0.000000
  0Cl  2px        0.257424  0.010316 -0.033223  0.000000 -0.000000  0.000000
  0Cl  2py       -0.034485  0.042804 -0.253857 -0.000000 -0.000000  0.000000
  0Cl  3pz        0.033816 -1.879275 -0.321466 -0.000000 -0.000000 -0.000000
  0Cl  3px       -1.889180 -0.075735  0.243907 -0.000000  0.000000 -0.000000
  0Cl  3py        0.253076 -0.314243  1.863686  0.000000  0.000000 -0.000000
  0Cl  4pz       -0.032139  1.779868  0.304462  0.000000  0.000000  0.000000
  0Cl  4px        1.795514  0.071729 -0.231005  0.000000 -0.000000  0.000000
  0Cl  4py       -0.240529  0.297621 -1.765104 -0.000000 -0.000000  0.000000
  0Cl  5pz        0.010366 -0.569249 -0.097375 -0.000000 -0.000000 -0.000000
  0Cl  5px       -0.579104 -0.022941  0.073882 -0.000000  0.000000 -0.000000
  0Cl  5py        0.077577 -0.095187  0.564527  0.000000  0.000000 -0.000000
  0Cl  1dz2       0.000000  0.000000  0.000000 -0.553672  0.033842 -0.003855
  0Cl  1dxz      -0.000000 -0.000000  0.000000 -0.033747 -1.091526  0.121695
  0Cl  1dyz      -0.000000 -0.000000 -0.000000  0.004521  0.143976 -0.036019
  0Cl  1dx2y2    -0.000000 -0.000000 -0.000000  0.925759  0.014171  0.292060
  0Cl  1dxy      -0.000000 -0.000000  0.000000 -0.252564  0.126178  1.062076
  0Cl  2dz2      -0.000000  0.000000 -0.000000  0.338174 -0.020642  0.002351
  0Cl  2dxz       0.000000  0.000000 -0.000000  0.020612  0.665769 -0.074227
  0Cl  2dyz       0.000000  0.000000  0.000000 -0.002761 -0.087817  0.021970
  0Cl  2dx2y2     0.000000  0.000000  0.000000 -0.565439 -0.008643 -0.178140
  0Cl  2dxy       0.000000  0.000000 -0.000000  0.154262 -0.076962 -0.647806
                     24        25        26        27        28        29   
                   2.70841   2.70841   9.92334  26.12956  26.17455  26.17455
                   0.00000   0.00000   0.00000   0.00000   0.00000   0.00000
                  --------  --------  --------  --------  --------  --------
  0Cl  1s        -0.000000 -0.000000 -0.115947 -0.000000  0.000000  0.000000
  0Cl  2s        -0.000000 -0.000000 -0.481575 -0.000000  0.000000  0.000000
  0Cl  3s         0.000000  0.000000  2.618821  0.000000 -0.000000 -0.000000
  0Cl  4s         0.000000  0.000000 -2.997798 -0.000000  0.000000  0.000000
  0Cl  5s        -0.000000 -0.000000  1.463619  0.000000 -0.000000  0.000000
  0Cl  6s         0.000000  0.000000 -0.575031 -0.000000  0.000000 -0.000000
  0Cl  1pz        0.000000 -0.000000 -0.000000 -0.059510 -3.306245  0.567584
  0Cl  1px        0.000000 -0.000000 -0.000000  3.324628 -0.133510 -0.429075
  0Cl  1py        0.000000  0.000000 -0.000000 -0.445370 -0.554859 -3.278825
  0Cl  2pz        0.000000 -0.000000 -0.000000 -0.060315 -3.350730  0.575221
  0Cl  2px        0.000000 -0.000000 -0.000000  3.369579 -0.135307 -0.434848
  0Cl  2py        0.000000  0.000000 -0.000000 -0.451392 -0.562324 -3.322941
  0Cl  3pz       -0.000000  0.000000  0.000000  0.041003  2.277911 -0.391050
  0Cl  3px       -0.000000  0.000000  0.000000 -2.290681  0.091985  0.295621
  0Cl  3py       -0.000000 -0.000000  0.000000  0.306862  0.382282  2.259020
  0Cl  4pz        0.000000 -0.000000 -0.000000 -0.019046 -1.057603  0.181559
  0Cl  4px        0.000000 -0.000000 -0.000000  1.064036 -0.042707 -0.137253
  0Cl  4py        0.000000  0.000000 -0.000000 -0.142539 -0.177489 -1.048832
  0Cl  5pz       -0.000000  0.000000  0.000000  0.005059  0.280737 -0.048194
  0Cl  5px       -0.000000  0.000000  0.000000 -0.282612  0.011337  0.036433
  0Cl  5py       -0.000000 -0.000000  0.000000  0.037859  0.047114  0.278409
  0Cl  1dz2      -0.007707  0.960410 -0.000340 -0.000000  0.000000 -0.000000
  0Cl  1dxz       0.147112  0.020682 -0.000021  0.000000  0.000000 -0.000000
  0Cl  1dyz       1.099361  0.006210  0.000003 -0.000000  0.000000 -0.000000
  0Cl  1dx2y2     0.000884  0.535321  0.000569 -0.000000  0.000000 -0.000000
  0Cl  1dxy       0.020156 -0.145881 -0.000155  0.000000 -0.000000 -0.000000
  0Cl  2dz2       0.004679 -0.583103  0.000675  0.000000 -0.000000  0.000000
  0Cl  2dxz      -0.089318 -0.012557  0.000041 -0.000000 -0.000000  0.000000
  0Cl  2dyz      -0.667466 -0.003770 -0.000006  0.000000 -0.000000  0.000000
  0Cl  2dx2y2    -0.000536 -0.325015 -0.001129 -0.000000  0.000000  0.000000
  0Cl  2dxy      -0.012238  0.088570  0.000308 -0.000000  0.000000  0.000000
                     30   
                 218.71511
                   0.00000
                  --------
  0Cl  1s         1.541315
  0Cl  2s        -1.911226
  0Cl  3s         1.419525
  0Cl  4s        -0.929937
  0Cl  5s         0.330585
  0Cl  6s        -0.126744
  0Cl  1pz        0.000000
  0Cl  1px        0.000000
  0Cl  1py       -0.000000
  0Cl  2pz        0.000000
  0Cl  2px        0.000000
  0Cl  2py       -0.000000
  0Cl  3pz       -0.000000
  0Cl  3px       -0.000000
  0Cl  3py        0.000000
  0Cl  4pz        0.000000
  0Cl  4px        0.000000
  0Cl  4py       -0.000000
  0Cl  5pz       -0.000000
  0Cl  5px       -0.000000
  0Cl  5py        0.000000
  0Cl  1dz2      -0.000006
  0Cl  1dxz      -0.000000
  0Cl  1dyz       0.000000
  0Cl  1dx2y2     0.000009
  0Cl  1dxy      -0.000003
  0Cl  2dz2       0.000006
  0Cl  2dxz       0.000000
  0Cl  2dyz      -0.000000
  0Cl  2dx2y2    -0.000010
  0Cl  2dxy       0.000003

                      0         1         2         3         4         5   
                 -104.88131 -10.60447  -8.07114  -8.07114  -8.05360  -1.01689
                   1.00000   1.00000   1.00000   1.00000   1.00000   1.00000
                  --------  --------  --------  --------  --------  --------
  0Cl  1s        -0.411758 -0.121949 -0.000000 -0.000000  0.000000 -0.036876
  0Cl  2s        -0.654678 -0.331483 -0.000000 -0.000000  0.000000 -0.106925
  0Cl  3s        -0.011971  0.511348  0.000000  0.000000 -0.000000  0.213330
  0Cl  4s         0.000838  0.607480  0.000000  0.000000 -0.000000  0.420738
  0Cl  5s        -0.000178  0.039278  0.000000  0.000000 -0.000000 -0.647903
  0Cl  6s         0.000076 -0.007297 -0.000000  0.000000  0.000000 -0.568168
  0Cl  1pz        0.000000 -0.000000 -0.138130 -1.223662 -0.021802  0.000000
  0Cl  1px        0.000000  0.000000 -0.164926 -0.003174  1.218011  0.000000
  0Cl  1py       -0.000000  0.000000 -1.212694  0.139811 -0.163166  0.000000
  0Cl  2pz        0.000000 -0.000000 -0.036716 -0.325260 -0.005801  0.000000
  0Cl  2px        0.000000  0.000000 -0.043839 -0.000844  0.324088  0.000000
  0Cl  2py       -0.000000  0.000000 -0.322345  0.037163 -0.043415  0.000000
  0Cl  3pz       -0.000000  0.000000 -0.005469 -0.048446 -0.000963 -0.000000
  0Cl  3px       -0.000000  0.000000 -0.006530 -0.000126  0.053777 -0.000000
  0Cl  3py        0.000000  0.000000 -0.048012  0.005535 -0.007204 -0.000000
  0Cl  4pz        0.000000 -0.000000  0.000240  0.002128  0.000082 -0.000000
  0Cl  4px        0.000000 -0.000000  0.000287  0.000006 -0.004575 -0.000000
  0Cl  4py       -0.000000 -0.000000  0.002108 -0.000243  0.000613 -0.000000
  0Cl  5pz       -0.000000  0.000000 -0.000074 -0.000656 -0.000024 -0.000000
  0Cl  5px       -0.000000 -0.000000 -0.000088 -0.000002  0.001335 -0.000000
  0Cl  5py        0.000000  0.000000 -0.000650  0.000075 -0.000179  0.000000
  0Cl  1dz2       0.000008 -0.000289 -0.000000  0.000000 -0.000000 -0.007428
  0Cl  1dxz       0.000000 -0.000018 -0.000000 -0.000000  0.000000 -0.000453
  0Cl  1dyz      -0.000000  0.000002 -0.000000  0.000000  0.000000  0.000061
  0Cl  1dx2y2    -0.000014  0.000484  0.000000 -0.000000  0.000000  0.012420
  0Cl  1dxy       0.000004 -0.000132  0.000000 -0.000000 -0.000000 -0.003388
  0Cl  2dz2       0.000003  0.000348  0.000000  0.000000 -0.000000 -0.019035
  0Cl  2dxz       0.000000  0.000021 -0.000000  0.000000 -0.000000 -0.001160
  0Cl  2dyz      -0.000000 -0.000003  0.000000 -0.000000 -0.000000  0.000155
  0Cl  2dx2y2    -0.000005 -0.000582 -0.000000  0.000000  0.000000  0.031827
  0Cl  2dxy       0.000001  0.000159  0.000000  0.000000 -0.000000 -0.008683
                      6         7         8         9        10        11   
                  -0.48102  -0.48102  -0.04589   0.41290   0.41290   0.44871
                   1.00000   1.00000   0.00000   0.00000   0.00000   0.00000
                  --------  --------  --------  --------  --------  --------
  0Cl  1s        -0.000000  0.000000  0.000000  0.000000  0.000000  0.000000
  0Cl  2s        -0.000000  0.000000  0.000000  0.000000  0.000000  0.000000
  0Cl  3s         0.000000 -0.000000 -0.000000 -0.000000 -0.000000 -0.000000
  0Cl  4s         0.000000 -0.000000 -0.000000 -0.000000 -0.000000 -0.000000
  0Cl  5s        -0.000000  0.000000  0.000000  0.000000  0.000000  0.000000
  0Cl  6s        -0.000000  0.000000  0.000000 -0.000000 -0.000000  0.000000
  0Cl  1pz       -0.310368 -0.134725 -0.005074 -0.111929  0.151284 -0.004154
  0Cl  1px       -0.023348  0.038846  0.283479 -0.022058 -0.012204  0.232081
  0Cl  1py       -0.132822  0.307985 -0.037975 -0.149704 -0.111312 -0.031090
  0Cl  2pz       -0.073887 -0.032073 -0.001234 -0.017768  0.024016 -0.000713
  0Cl  2px       -0.005558  0.009248  0.068934 -0.003502 -0.001937  0.039822
  0Cl  2py       -0.031620  0.073320 -0.009234 -0.023765 -0.017670 -0.005335
  0Cl  3pz        0.226086  0.098140  0.003520  0.026846 -0.036285  0.000958
  0Cl  3px        0.017008 -0.028298 -0.196643  0.005291  0.002927 -0.053503
  0Cl  3py        0.096754 -0.224351  0.026343  0.035906  0.026698  0.007167
  0Cl  4pz        0.551809  0.239530  0.007962  0.578776 -0.782274  0.019497
  0Cl  4px        0.041512 -0.069066 -0.444832  0.114060  0.063103 -1.089224
  0Cl  4py        0.236147 -0.547574  0.059590  0.774107  0.575585  0.145914
  0Cl  5pz        0.305659  0.132681  0.009654 -0.745687  1.007871 -0.020990
  0Cl  5px        0.022994 -0.038257 -0.539362 -0.146953 -0.081301  1.172643
  0Cl  5py        0.130807 -0.303313  0.072253 -0.997348 -0.741575 -0.157088
  0Cl  1dz2       0.000000  0.000000 -0.000000 -0.000000 -0.000000 -0.000000
  0Cl  1dxz       0.000000 -0.000000 -0.000000 -0.000000 -0.000000 -0.000000
  0Cl  1dyz      -0.000000 -0.000000 -0.000000  0.000000 -0.000000 -0.000000
  0Cl  1dx2y2     0.000000  0.000000 -0.000000 -0.000000 -0.000000 -0.000000
  0Cl  1dxy       0.000000 -0.000000 -0.000000  0.000000  0.000000 -0.000000
  0Cl  2dz2      -0.000000  0.000000  0.000000 -0.000000  0.000000  0.000000
  0Cl  2dxz       0.000000  0.000000 -0.000000 -0.000000 -0.000000 -0.000000
  0Cl  2dyz       0.000000 -0.000000  0.000000  0.000000 -0.000000 -0.000000
  0Cl  2dx2y2    -0.000000  0.000000 -0.000000 -0.000000  0.000000  0.000000
  0Cl  2dxy       0.000000 -0.000000 -0.000000 -0.000000  0.000000 -0.000000
                     12        13        14        15        16        17   
                   0.65360   0.65360   0.68572   0.68572   0.69878   0.77390
                   0.00000   0.00000   0.00000   0.00000   0.00000   0.00000
                  --------  --------  --------  --------  --------  --------
  0Cl  1s         0.000000  0.000000  0.000000  0.000000  0.000591 -0.034571
  0Cl  2s         0.000000  0.000000  0.000000  0.000000  0.001251 -0.094819
  0Cl  3s         0.000000 -0.000000 -0.000000 -0.000000  0.001744  0.142771
  0Cl  4s        -0.000000  0.000000 -0.000000 -0.000000 -0.026978  0.659080
  0Cl  5s         0.000000 -0.000000  0.000000  0.000000  0.114422 -2.127940
  0Cl  6s        -0.000000  0.000000 -0.000000 -0.000000 -0.143466  1.727033
  0Cl  1pz        0.000000 -0.000000 -0.000000 -0.000000  0.000000  0.000000
  0Cl  1px        0.000000  0.000000 -0.000000 -0.000000 -0.000000  0.000000
  0Cl  1py       -0.000000 -0.000000 -0.000000  0.000000  0.000000 -0.000000
  0Cl  2pz        0.000000 -0.000000 -0.000000 -0.000000  0.000000  0.000000
  0Cl  2px       -0.000000  0.000000 -0.000000 -0.000000 -0.000000  0.000000
  0Cl  2py        0.000000 -0.000000 -0.000000  0.000000  0.000000 -0.000000
  0Cl  3pz       -0.000000  0.000000  0.000000  0.000000  0.000000 -0.000000
  0Cl  3px        0.000000 -0.000000  0.000000  0.000000  0.000000 -0.000000
  0Cl  3py       -0.000000  0.000000  0.000000  0.000000 -0.000000 -0.000000
  0Cl  4pz       -0.000000 -0.000000 -0.000000 -0.000000 -0.000000  0.000000
  0Cl  4px       -0.000000 -0.000000  0.000000  0.000000  0.000000  0.000000
  0Cl  4py        0.000000 -0.000000  0.000000 -0.000000 -0.000000  0.000000
  0Cl  5pz        0.000000  0.000000  0.000000  0.000000  0.000000 -0.000000
  0Cl  5px        0.000000  0.000000 -0.000000 -0.000000 -0.000000 -0.000000
  0Cl  5py       -0.000000  0.000000 -0.000000  0.000000  0.000000 -0.000000
  0Cl  1dz2      -0.002911 -0.160157 -0.004484  0.003201  0.088059  0.006916
  0Cl  1dxz       0.024499 -0.003698  0.144836 -0.102881  0.005367  0.000422
  0Cl  1dyz       0.183333 -0.002897 -0.017537  0.016395 -0.000719 -0.000056
  0Cl  1dx2y2    -0.000759 -0.089278 -0.024927 -0.040197 -0.147237 -0.011564
  0Cl  1dxy       0.003608  0.024295 -0.101204 -0.140319  0.040169  0.003155
  0Cl  2dz2      -0.014188 -0.780477 -0.022628  0.016155  0.451336  0.029901
  0Cl  2dxz       0.119390 -0.018023  0.730875 -0.519160  0.027510  0.001823
  0Cl  2dyz       0.893417 -0.014117 -0.088497  0.082730 -0.003685 -0.000244
  0Cl  2dx2y2    -0.003699 -0.435071 -0.125785 -0.202844 -0.754649 -0.049995
  0Cl  2dxy       0.017585  0.118394 -0.510696 -0.708079  0.205882  0.013640
                     18        19        20        21        22        23   
                   2.43619   2.43619   2.45171   2.69613   2.70032   2.70032
                   0.00000   0.00000   0.00000   0.00000   0.00000   0.00000
                  --------  --------  --------  --------  --------  --------
  0Cl  1s         0.000000 -0.000000 -0.000000  0.000273 -0.000000 -0.000000
  0Cl  2s         0.000000  0.000000 -0.000000  0.000854 -0.000000  0.000000
  0Cl  3s         0.000000 -0.000000  0.000000 -0.002387  0.000000 -0.000000
  0Cl  4s        -0.000000  0.000000  0.000000 -0.000503 -0.000000  0.000000
  0Cl  5s         0.000000 -0.000000 -0.000000 -0.000451  0.000000 -0.000000
  0Cl  6s        -0.000000  0.000000  0.000000  0.006658 -0.000000  0.000000
  0Cl  1pz        0.775664  0.121051 -0.014182  0.000000  0.000000  0.000000
  0Cl  1px        0.029714 -0.100876  0.792326  0.000000 -0.000000  0.000000
  0Cl  1py        0.118171 -0.769203 -0.106141 -0.000000 -0.000000 -0.000000
  0Cl  2pz        0.256745  0.040068 -0.004681  0.000000  0.000000  0.000000
  0Cl  2px        0.009836 -0.033390  0.261513  0.000000 -0.000000  0.000000
  0Cl  2py        0.039115 -0.254607 -0.035033 -0.000000 -0.000000 -0.000000
  0Cl  3pz       -1.884005 -0.294019  0.033933 -0.000000 -0.000000 -0.000000
  0Cl  3px       -0.072173  0.245018 -1.895749 -0.000000  0.000000 -0.000000
  0Cl  3py       -0.287024  1.868311  0.253956  0.000000  0.000000  0.000000
  0Cl  4pz        1.782030  0.278105 -0.031504  0.000000  0.000000  0.000000
  0Cl  4px        0.068267 -0.231756  1.760032  0.000000 -0.000000  0.000000
  0Cl  4py        0.271488 -1.767186 -0.235776 -0.000000 -0.000000 -0.000000
  0Cl  5pz       -0.568543 -0.088727  0.010006  0.000000 -0.000000 -0.000000
  0Cl  5px       -0.021780  0.073940 -0.559000 -0.000000  0.000000 -0.000000
  0Cl  5py       -0.086616  0.563807  0.074884  0.000000 -0.000000  0.000000
  0Cl  1dz2       0.000000  0.000000 -0.000000 -0.554876  0.021602  0.026402
  0Cl  1dxz       0.000000  0.000000 -0.000000 -0.033821 -0.694517 -0.852987
  0Cl  1dyz      -0.000000  0.000000 -0.000000  0.004531  0.108420  0.101682
  0Cl  1dx2y2     0.000000 -0.000000 -0.000000  0.927771 -0.238209  0.170348
  0Cl  1dxy       0.000000  0.000000 -0.000000 -0.253112 -0.825759  0.682317
  0Cl  2dz2      -0.000000 -0.000000  0.000000  0.332843 -0.012994 -0.015882
  0Cl  2dxz      -0.000000 -0.000000  0.000000  0.020287  0.417770  0.513094
  0Cl  2dyz       0.000000 -0.000000  0.000000 -0.002718 -0.065218 -0.061164
  0Cl  2dx2y2    -0.000000  0.000000  0.000000 -0.556524  0.143289 -0.102469
  0Cl  2dxy      -0.000000 -0.000000  0.000000  0.151830  0.496716 -0.410432
                     24        25        26        27        28        29   
                   2.71290   2.71290   9.94156  26.15364  26.17965  26.17965
                   0.00000   0.00000   0.00000   0.00000   0.00000   0.00000
                  --------  --------  --------  --------  --------  --------
  0Cl  1s        -0.000000  0.000000  0.115945  0.000000 -0.000000  0.000000
  0Cl  2s        -0.000000  0.000000  0.481588  0.000000 -0.000000  0.000000
  0Cl  3s         0.000000 -0.000000 -2.618835 -0.000000  0.000000 -0.000000
  0Cl  4s         0.000000 -0.000000  2.997826  0.000000  0.000000  0.000000
  0Cl  5s         0.000000  0.000000 -1.463685 -0.000000 -0.000000 -0.000000
  0Cl  6s        -0.000000  0.000000  0.573642  0.000000  0.000000  0.000000
  0Cl  1pz        0.000000  0.000000 -0.000000  0.059507  3.314283 -0.518743
  0Cl  1px       -0.000000  0.000000  0.000000 -3.324456  0.127166  0.431001
  0Cl  1py        0.000000  0.000000  0.000000  0.445347  0.506424  3.286678
  0Cl  2pz        0.000000  0.000000 -0.000000  0.060313  3.358855 -0.525719
  0Cl  2px       -0.000000  0.000000  0.000000 -3.369511  0.128876  0.436797
  0Cl  2py        0.000000  0.000000  0.000000  0.451383  0.513235  3.330879
  0Cl  3pz       -0.000000 -0.000000  0.000000 -0.040995 -2.283461  0.357401
  0Cl  3px        0.000000 -0.000000 -0.000000  2.290264 -0.087614 -0.296949
  0Cl  3py       -0.000000 -0.000000 -0.000000 -0.306806 -0.348914 -2.264442
  0Cl  4pz        0.000000  0.000000 -0.000000  0.019029  1.059994 -0.165908
  0Cl  4px       -0.000000  0.000000  0.000000 -1.063091  0.040671  0.137845
  0Cl  4py        0.000000  0.000000  0.000000  0.142413  0.161968  1.051165
  0Cl  5pz       -0.000000  0.000000  0.000000 -0.005053 -0.281353  0.044037
  0Cl  5px        0.000000 -0.000000 -0.000000  0.282273 -0.010795 -0.036588
  0Cl  5py       -0.000000 -0.000000 -0.000000 -0.037814 -0.042991 -0.279010
  0Cl  1dz2      -0.767078  0.578239  0.000280 -0.000000 -0.000000 -0.000000
  0Cl  1dxz       0.073092  0.129364  0.000017  0.000000  0.000000  0.000000
  0Cl  1dyz       0.663972  0.876468 -0.000002  0.000000  0.000000 -0.000000
  0Cl  1dx2y2    -0.424408  0.326415 -0.000468  0.000000  0.000000  0.000000
  0Cl  1dxy       0.128067 -0.072761  0.000128 -0.000000 -0.000000  0.000000
  0Cl  2dz2       0.464992 -0.350521  0.000145  0.000000  0.000000  0.000000
  0Cl  2dxz      -0.044307 -0.078419  0.000009 -0.000000 -0.000000 -0.000000
  0Cl  2dyz      -0.402491 -0.531303 -0.000001 -0.000000 -0.000000  0.000000
  0Cl  2dx2y2     0.257270 -0.197868 -0.000242  0.000000 -0.000000 -0.000000
  0Cl  2dxy      -0.077632  0.044107  0.000066  0.000000  0.000000  0.000000
                     30   
                 218.72116
                   0.00000
                  --------
  0Cl  1s         1.541309
  0Cl  2s        -1.911233
  0Cl  3s         1.419519
  0Cl  4s        -0.929942
  0Cl  5s         0.330579
  0Cl  6s        -0.126734
  0Cl  1pz        0.000000
  0Cl  1px        0.000000
  0Cl  1py       -0.000000
  0Cl  2pz        0.000000
  0Cl  2px        0.000000
  0Cl  2py       -0.000000
  0Cl  3pz       -0.000000
  0Cl  3px       -0.000000
  0Cl  3py        0.000000
  0Cl  4pz        0.000000
  0Cl  4px        0.000000
  0Cl  4py       -0.000000
  0Cl  5pz       -0.000000
  0Cl  5px       -0.000000
  0Cl  5py        0.000000
  0Cl  1dz2       0.000000
  0Cl  1dxz       0.000000
  0Cl  1dyz      -0.000000
  0Cl  1dx2y2    -0.000000
  0Cl  1dxy       0.000000
  0Cl  2dz2       0.000001
  0Cl  2dxz       0.000000
  0Cl  2dyz      -0.000000
  0Cl  2dx2y2    -0.000001
  0Cl  2dxy       0.000000



                    ********************************
                    * MULLIKEN POPULATION ANALYSIS *
                    ********************************

--------------------------------------------
MULLIKEN ATOMIC CHARGES AND SPIN POPULATIONS
--------------------------------------------
   0 Cl:    0.000000    1.000000
Sum of atomic charges         :    0.0000000
Sum of atomic spin populations:    1.0000000

-----------------------------------------------------
MULLIKEN REDUCED ORBITAL CHARGES AND SPIN POPULATIONS
-----------------------------------------------------
CHARGE
  0 Cls       :     5.996245  s :     5.996245
      pz      :     3.999685  p :    11.000000
      px      :     3.017938
      py      :     3.982376
      dz2     :     0.000937  d :     0.003755
      dxz     :     0.000003
      dyz     :     0.000000
      dx2y2   :     0.002619
      dxy     :     0.000195

SPIN
  0 Cls       :     0.000631  s :     0.000631
      pz      :     0.000315  p :     1.000000
      px      :     0.982062
      py      :     0.017624
      dz2     :    -0.000157  d :    -0.000631
      dxz     :    -0.000001
      dyz     :    -0.000000
      dx2y2   :    -0.000440
      dxy     :    -0.000033


                     *******************************
                     * LOEWDIN POPULATION ANALYSIS *
                     *******************************

-------------------------------------------
LOEWDIN ATOMIC CHARGES AND SPIN POPULATIONS
-------------------------------------------
   0 Cl:    0.000000    1.000000

----------------------------------------------------
LOEWDIN REDUCED ORBITAL CHARGES AND SPIN POPULATIONS
----------------------------------------------------
CHARGE
  0 Cls       :     5.996245  s :     5.996245
      pz      :     3.999685  p :    11.000000
      px      :     3.017938
      py      :     3.982376
      dz2     :     0.000937  d :     0.003755
      dxz     :     0.000003
      dyz     :     0.000000
      dx2y2   :     0.002619
      dxy     :     0.000195

SPIN
  0 Cls       :     0.000631  s :     0.000631
      pz      :     0.000315  p :     1.000000
      px      :     0.982062
      py      :     0.017624
      dz2     :    -0.000157  d :    -0.000631
      dxz     :    -0.000001
      dyz     :    -0.000000
      dx2y2   :    -0.000440
      dxy     :    -0.000033


                      *****************************
                      * MAYER POPULATION ANALYSIS *
                      *****************************

  NA   - Mulliken gross atomic population
  ZA   - Total nuclear charge
  QA   - Mulliken gross atomic charge
  VA   - Mayer's total valence
  BVA  - Mayer's bonded valence
  FA   - Mayer's free valence

  ATOM       NA         ZA         QA         VA         BVA        FA
  0 Cl    17.0000    17.0000    -0.0000     1.0157     0.0000     1.0157

  Mayer bond orders larger than 0.100000


Now starting NBO....

 *********************************** NBO 7.0 ***********************************
             N A T U R A L   A T O M I C   O R B I T A L   A N D
          N A T U R A L   B O N D   O R B I T A L   A N A L Y S I S
 *********************** Giovanni  F. Caramori (I101916) ***********************
  (c) Copyright 1996-2020 Board of Regents of the University of Wisconsin System
      on behalf of the Theoretical Chemistry Institute.  All rights reserved.

          Cite this program [NBO 7.0.8 (11-Feb-2020)] as:

          NBO 7.0.  E. D. Glendening, J. K. Badenhoop, A. E. Reed,
          J. E. Carpenter, J. A. Bohmann, C. M. Morales, P. Karafiloglou,
          C. R. Landis, and F. Weinhold, Theoretical Chemistry Institute,
          University of Wisconsin, Madison, WI (2018)

       /NPA    / : Natural Population Analysis
       /NBO    / : Natural Bond Orbital Analysis
       /AONBO  / : Checkpoint the AO to NBO transformation
       /ARCHIVE/ : Write the archive file to lfn47

 Job title: ORCA Job: Cl·


 NATURAL POPULATIONS:  Natural atomic orbital occupancies

  NAO Atom No lang   Type(AO)    Occupancy     Spin
 -----------------------------------------------------
   1   Cl  1  s      Cor( 1s)     2.00000     0.00000
   2   Cl  1  s      Cor( 2s)     2.00000     0.00000
   3   Cl  1  s      Val( 3s)     1.99622     0.00063
   4   Cl  1  s      Ryd( 4s)     0.00003     0.00000
   5   Cl  1  s      Ryd( 5s)     0.00000     0.00000
   6   Cl  1  s      Ryd( 6s)     0.00000     0.00000
   7   Cl  1  px     Cor( 2p)     1.99999     0.00001
   8   Cl  1  px     Val( 3p)     1.01701     0.98114
   9   Cl  1  px     Ryd( 4p)     0.00093     0.00092
  10   Cl  1  px     Ryd( 5p)     0.00000     0.00000
  11   Cl  1  px     Ryd( 6p)     0.00000     0.00000
  12   Cl  1  py     Cor( 2p)     2.00000     0.00000
  13   Cl  1  py     Val( 3p)     1.98216     0.01781
  14   Cl  1  py     Ryd( 4p)     0.00022    -0.00019
  15   Cl  1  py     Ryd( 5p)     0.00000     0.00000
  16   Cl  1  py     Ryd( 6p)     0.00000     0.00000
  17   Cl  1  pz     Cor( 2p)     2.00000     0.00000
  18   Cl  1  pz     Val( 3p)     1.99948     0.00052
  19   Cl  1  pz     Ryd( 4p)     0.00021    -0.00021
  20   Cl  1  pz     Ryd( 5p)     0.00000     0.00000
  21   Cl  1  pz     Ryd( 6p)     0.00000     0.00000
  22   Cl  1  dxy    Ryd( 3d)     0.00019    -0.00003
  23   Cl  1  dxy    Ryd( 4d)     0.00000     0.00000
  24   Cl  1  dxz    Ryd( 3d)     0.00000     0.00000
  25   Cl  1  dxz    Ryd( 4d)     0.00000     0.00000
  26   Cl  1  dyz    Ryd( 3d)     0.00000     0.00000
  27   Cl  1  dyz    Ryd( 4d)     0.00000     0.00000
  28   Cl  1  dx2y2  Ryd( 3d)     0.00262    -0.00044
  29   Cl  1  dx2y2  Ryd( 4d)     0.00000     0.00000
  30   Cl  1  dz2    Ryd( 3d)     0.00094    -0.00016
  31   Cl  1  dz2    Ryd( 4d)     0.00000     0.00000


 Summary of Natural Population Analysis:

                                     Natural Population                 Natural
             Natural    ---------------------------------------------    Spin
  Atom No    Charge        Core      Valence    Rydberg      Total      Density
 -------------------------------------------------------------------------------
   Cl  1    0.00000      9.99999     6.99486    0.00515    17.00000     1.00000
 ===============================================================================
 * Total *  0.00000      9.99999     6.99486    0.00515    17.00000     1.00000

                                 Natural Population
 ---------------------------------------------------------
   Core                       9.99999 ( 99.9999% of   10)
   Valence                    6.99486 ( 99.9265% of    7)
   Natural Minimal Basis     16.99485 ( 99.9697% of   17)
   Natural Rydberg Basis      0.00515 (  0.0303% of   17)
 ---------------------------------------------------------

    Atom No         Natural Electron Configuration
 ----------------------------------------------------------------------------
     Cl  1      [core]3s( 2.00)3p( 5.00)


 ***************************************************
 *******         Alpha spin orbitals         *******
 ***************************************************


 NATURAL POPULATIONS:  Natural atomic orbital occupancies

  NAO Atom No lang   Type(AO)    Occupancy      Energy
 -------------------------------------------------------
   1   Cl  1  s      Cor( 1s)     1.00000    -104.87105
   2   Cl  1  s      Cor( 2s)     1.00000     -10.63583
   3   Cl  1  s      Val( 3s)     0.99842      -1.13739
   4   Cl  1  s      Ryd( 4s)     0.00001       1.01269
   5   Cl  1  s      Ryd( 5s)     0.00000       9.83192
   6   Cl  1  s      Ryd( 6s)     0.00000     218.53916
   7   Cl  1  px     Cor( 2p)     1.00000      -8.10209
   8   Cl  1  px     Val( 3p)     0.99907      -0.57997
   9   Cl  1  px     Ryd( 4p)     0.00093       0.37911
  10   Cl  1  px     Ryd( 5p)     0.00000       2.49113
  11   Cl  1  px     Ryd( 6p)     0.00000      26.00671
  12   Cl  1  py     Cor( 2p)     1.00000      -8.07762
  13   Cl  1  py     Val( 3p)     0.99998      -0.50680
  14   Cl  1  py     Ryd( 4p)     0.00002       0.41122
  15   Cl  1  py     Ryd( 5p)     0.00000       2.54392
  16   Cl  1  py     Ryd( 6p)     0.00000      26.04997
  17   Cl  1  pz     Cor( 2p)     1.00000      -8.07718
  18   Cl  1  pz     Val( 3p)     1.00000      -0.50549
  19   Cl  1  pz     Ryd( 4p)     0.00000       0.41179
  20   Cl  1  pz     Ryd( 5p)     0.00000       2.54487
  21   Cl  1  pz     Ryd( 6p)     0.00000      26.05074
  22   Cl  1  dxy    Ryd( 3d)     0.00008       0.64001
  23   Cl  1  dxy    Ryd( 4d)     0.00000       2.62600
  24   Cl  1  dxz    Ryd( 3d)     0.00000       0.64088
  25   Cl  1  dxz    Ryd( 4d)     0.00000       2.62671
  26   Cl  1  dyz    Ryd( 3d)     0.00000       0.68729
  27   Cl  1  dyz    Ryd( 4d)     0.00000       2.66584
  28   Cl  1  dx2y2  Ryd( 3d)     0.00109       0.63954
  29   Cl  1  dx2y2  Ryd( 4d)     0.00000       2.62596
  30   Cl  1  dz2    Ryd( 3d)     0.00039       0.67191
  31   Cl  1  dz2    Ryd( 4d)     0.00000       2.65301


 Summary of Natural Population Analysis:

                                     Natural Population
             Natural    ---------------------------------------------
  Atom No    Charge        Core      Valence    Rydberg      Total
 --------------------------------------------------------------------
   Cl  1   -0.50000      5.00000     3.99748    0.00253     9.00000
 ====================================================================
 * Total * -0.50000      5.00000     3.99748    0.00253     9.00000

                                 Natural Population
 ---------------------------------------------------------
   Core                       5.00000 (100.0000% of    5)
   Valence                    3.99748 ( 99.9369% of    4)
   Natural Minimal Basis      8.99747 ( 99.9719% of    9)
   Natural Rydberg Basis      0.00253 (  0.0281% of    9)
 ---------------------------------------------------------

    Atom No         Natural Electron Configuration
 ----------------------------------------------------------------------------
     Cl  1      [core]3s( 1.00)3p( 3.00)


 NATURAL BOND ORBITAL ANALYSIS, alpha spin orbitals:

                            Occupancies       Lewis Structure    Low   High
         Max    Occ     -------------------  -----------------   occ   occ
  Cycle  Ctr   Thresh    Lewis   non-Lewis     CR  BD  nC  LP    (L)   (NL)
 ============================================================================
    1     1     0.50     9.00000   0.00000      5   0   0   4     0      0
 ----------------------------------------------------------------------------

 Structure accepted: No low occupancy Lewis orbitals

 -------------------------------------------------------
   Core                      5.00000 (100.000% of   5)
   Valence Lewis             4.00000 (100.000% of   4)
  ==================      =============================
   Total Lewis               9.00000 (100.000% of   9)
  -----------------------------------------------------
   Valence non-Lewis         0.00000 (  0.000% of   9)
   Rydberg non-Lewis         0.00000 (  0.000% of   9)
  ==================      =============================
   Total non-Lewis           0.00000 (  0.000% of   9)
 -------------------------------------------------------


     (Occupancy)   Bond orbital / Coefficients / Hybrids
 ------------------ Lewis ------------------------------------------------------
   1. (1.00000) CR ( 1)Cl  1            s(100.00%)
                                         1.0000  0.0000  0.0000  0.0000  0.0000
                                         0.0000  0.0000  0.0000  0.0000  0.0000
                                         0.0000  0.0000  0.0000  0.0000  0.0000
                                         0.0000  0.0000  0.0000  0.0000  0.0000
                                         0.0000  0.0000  0.0000  0.0000  0.0000
                                         0.0000  0.0000  0.0000  0.0000  0.0000
                                         0.0000
   2. (1.00000) CR ( 2)Cl  1            s(100.00%)
                                         0.0000  1.0000  0.0000  0.0000  0.0000
                                         0.0000  0.0000  0.0000  0.0000  0.0000
                                         0.0000  0.0000  0.0000  0.0000  0.0000
                                         0.0000  0.0000  0.0000  0.0000  0.0000
                                         0.0000  0.0000  0.0000  0.0000  0.0000
                                         0.0000  0.0000  0.0000  0.0000  0.0000
                                         0.0000
   3. (1.00000) CR ( 3)Cl  1            s(  0.00%)p 1.00(100.00%)
                                         0.0000  0.0000  0.0000  0.0000  0.0000
                                         0.0000  1.0000  0.0000  0.0000  0.0000
                                         0.0000  0.0000  0.0000  0.0000  0.0000
                                         0.0000  0.0000  0.0000  0.0000  0.0000
                                         0.0000  0.0000  0.0000  0.0000  0.0000
                                         0.0000  0.0000  0.0000  0.0000  0.0000
                                         0.0000
   4. (1.00000) CR ( 4)Cl  1            s(  0.00%)p 1.00(100.00%)
                                         0.0000  0.0000  0.0000  0.0000  0.0000
                                         0.0000  0.0000  0.0000  0.0000  0.0000
                                         0.0000  1.0000  0.0000  0.0000  0.0000
                                         0.0000  0.0000  0.0000  0.0000  0.0000
                                         0.0000  0.0000  0.0000  0.0000  0.0000
                                         0.0000  0.0000  0.0000  0.0000  0.0000
                                         0.0000
   5. (1.00000) CR ( 5)Cl  1            s(  0.00%)p 1.00(100.00%)
                                         0.0000  0.0000  0.0000  0.0000  0.0000
                                         0.0000  0.0000  0.0000  0.0000  0.0000
                                         0.0000  0.0000  0.0000  0.0000  0.0000
                                         0.0000  1.0000  0.0000  0.0000  0.0000
                                         0.0000  0.0000  0.0000  0.0000  0.0000
                                         0.0000  0.0000  0.0000  0.0000  0.0000
                                         0.0000
   6. (1.00000) LP ( 1)Cl  1            s( 99.84%)p 0.00(  0.00%)d 0.00(  0.16%)
                                         0.0000  0.0000  0.9992  0.0038  0.0000
                                         0.0000  0.0000  0.0000  0.0000  0.0000
                                         0.0000  0.0000  0.0000  0.0000  0.0000
                                         0.0000  0.0000  0.0000  0.0000  0.0000
                                         0.0000 -0.0090 -0.0003 -0.0012  0.0000
                                         0.0002  0.0000  0.0330  0.0011 -0.0197
                                        -0.0006
   7. (1.00000) LP ( 2)Cl  1            s(  0.00%)p 1.00(100.00%)
                                         0.0000  0.0000  0.0000  0.0000  0.0000
                                         0.0000  0.0000  0.9995 -0.0302  0.0001
                                         0.0000  0.0000  0.0000  0.0042  0.0000
                                         0.0000  0.0000  0.0000  0.0006  0.0000
                                         0.0000  0.0000  0.0000  0.0000  0.0000
                                         0.0000  0.0000  0.0000  0.0000  0.0000
                                         0.0000
   8. (1.00000) LP ( 3)Cl  1            s(  0.00%)p 1.00(100.00%)
                                         0.0000  0.0000  0.0000  0.0000  0.0000
                                         0.0000  0.0000  0.0001  0.0042  0.0000
                                         0.0000  0.0000  1.0000  0.0004 -0.0001
                                         0.0000  0.0000  0.0000 -0.0001  0.0000
                                         0.0000  0.0000  0.0000  0.0000  0.0000
                                         0.0000  0.0000  0.0000  0.0000  0.0000
                                         0.0000
   9. (1.00000) LP ( 4)Cl  1            s(  0.00%)p 1.00(100.00%)
                                         0.0000  0.0000  0.0000  0.0000  0.0000
                                         0.0000  0.0000  0.0000  0.0006  0.0000
                                         0.0000  0.0000  0.0000 -0.0001  0.0000
                                         0.0000  0.0000  1.0000  0.0010 -0.0001
                                         0.0000  0.0000  0.0000  0.0000  0.0000
                                         0.0000  0.0000  0.0000  0.0000  0.0000
                                         0.0000
 ---------------- non-Lewis ----------------------------------------------------
  10. (0.00000) RY ( 1)Cl  1            s( 88.19%)p 0.00(  0.00%)d 0.13( 11.81%)
  11. (0.00000) RY ( 2)Cl  1            s( 88.44%)p 0.00(  0.00%)d 0.13( 11.56%)
  12. (0.00000) RY ( 3)Cl  1            s( 99.22%)p 0.00(  0.00%)d 0.01(  0.78%)
  13. (0.00000) RY ( 4)Cl  1            s(  0.00%)p 1.00(100.00%)
  14. (0.00000) RY ( 5)Cl  1            s(  0.00%)p 1.00(100.00%)
  15. (0.00000) RY ( 6)Cl  1            s(  0.00%)p 1.00(100.00%)
  16. (0.00000) RY ( 7)Cl  1            s(  0.00%)p 1.00(100.00%)
  17. (0.00000) RY ( 8)Cl  1            s(  0.00%)p 1.00(100.00%)
  18. (0.00000) RY ( 9)Cl  1            s(  0.00%)p 1.00(100.00%)
  19. (0.00000) RY (10)Cl  1            s(  0.00%)p 1.00(100.00%)
  20. (0.00000) RY (11)Cl  1            s(  0.00%)p 1.00(100.00%)
  21. (0.00000) RY (12)Cl  1            s(  4.30%)p 0.00(  0.00%)d22.25( 95.70%)
  22. (0.00000) RY (13)Cl  1            s(  0.00%)p 1.00(100.00%)
  23. (0.00000) RY (14)Cl  1            s(  0.44%)p 0.00(  0.00%)d99.99( 99.56%)
  24. (0.00000) RY (15)Cl  1            s( 10.59%)p 0.00(  0.00%)d 8.44( 89.41%)
  25. (0.00000) RY (16)Cl  1            s(  0.01%)p 0.00(  0.00%)d 1.00( 99.99%)
  26. (0.00000) RY (17)Cl  1            s(  0.00%)p 0.00(  0.00%)d 1.00(100.00%)
  27. (0.00000) RY (18)Cl  1            s(  0.00%)p 0.00(  0.00%)d 1.00(100.00%)
  28. (0.00000) RY (19)Cl  1            s(  0.00%)p 0.00(  0.00%)d 1.00(100.00%)
  29. (0.00000) RY (20)Cl  1            s(  6.51%)p 0.00(  0.00%)d14.37( 93.49%)
  30. (0.00000) RY (21)Cl  1            s(  2.03%)p 0.00(  0.00%)d48.26( 97.97%)
  31. (0.00000) RY (22)Cl  1            s(  0.43%)p 0.00(  0.00%)d99.99( 99.57%)


 NHO DIRECTIONALITY AND BOND BENDING (deviation from line of nuclear centers at
                                      the position of maximum hybrid amplitude)

         [Thresholds for printing:  angular deviation  >  1.0 degree]
                                    p- or d-character  > 25.0%
                                    orbital occupancy  >  0.10e

                        Line of Centers        Hybrid 1             Hybrid 2
                        ---------------  -------------------  ------------------
           NBO            Theta   Phi    Theta   Phi    Dev   Theta   Phi    Dev
 ===============================================================================
   7. LP ( 2)Cl  1          --     --     90.0  359.8   --      --     --    --
   8. LP ( 3)Cl  1          --     --     90.0  270.2   --      --     --    --
   9. LP ( 4)Cl  1          --     --      0.0    0.0   --      --     --    --


 SECOND ORDER PERTURBATION THEORY ANALYSIS OF FOCK MATRIX IN NBO BASIS

     Threshold for printing:   0.25 kcal/mol
                                                          E(2) E(NL)-E(L) F(L,NL)
      Donor (L) NBO              Acceptor (NL) NBO      kcal/mol   a.u.    a.u.
 ===============================================================================

 within unit  1
       None above threshold


 NATURAL BOND ORBITALS (Summary):

                                                     Principal Delocalizations
           NBO                 Occupancy    Energy   (geminal,vicinal,remote)
 ===============================================================================
 Molecular unit  1  (Cl)
 ------ Lewis --------------------------------------
    1. CR ( 1)Cl  1             1.00000  -104.87105
    2. CR ( 2)Cl  1             1.00000   -10.63583
    3. CR ( 3)Cl  1             1.00000    -8.10209
    4. CR ( 4)Cl  1             1.00000    -8.07762
    5. CR ( 5)Cl  1             1.00000    -8.07718
    6. LP ( 1)Cl  1             1.00000    -1.14022
    7. LP ( 2)Cl  1             1.00000    -0.58086
    8. LP ( 3)Cl  1             1.00000    -0.50682
    9. LP ( 4)Cl  1             1.00000    -0.50549
 ------ non-Lewis ----------------------------------
   10. RY ( 1)Cl  1             0.00000     1.89149
   11. RY ( 2)Cl  1             0.00000    23.81210
   12. RY ( 3)Cl  1             0.00000   202.14869
   13. RY ( 4)Cl  1             0.00000     1.04731
   14. RY ( 5)Cl  1             0.00000     2.17880
   15. RY ( 6)Cl  1             0.00000    25.64962
   16. RY ( 7)Cl  1             0.00000     0.71915
   17. RY ( 8)Cl  1             0.00000     2.32521
   18. RY ( 9)Cl  1             0.00000    25.96264
   19. RY (10)Cl  1             0.00000     0.71403
   20. RY (11)Cl  1             0.00000     2.32521
   21. RY (12)Cl  1             0.00000     2.92913
   22. RY (13)Cl  1             0.00000    25.96839
   23. RY (14)Cl  1             0.00000     0.76912
   24. RY (15)Cl  1             0.00000     2.51948
   25. RY (16)Cl  1             0.00000     0.64243
   26. RY (17)Cl  1             0.00000     2.62741
   27. RY (18)Cl  1             0.00000     0.68732
   28. RY (19)Cl  1             0.00000     2.66585
   29. RY (20)Cl  1             0.00000     1.66261
   30. RY (21)Cl  1             0.00000     0.87574
   31. RY (22)Cl  1             0.00000     2.63235
          -------------------------------
                 Total Lewis    9.00000  (100.0000%)
           Valence non-Lewis    0.00000  (  0.0000%)
           Rydberg non-Lewis    0.00000  (  0.0000%)
          -------------------------------
               Total unit  1    9.00000  (100.0000%)
              Charge unit  1   -0.50000


 ***************************************************
 *******         Beta  spin orbitals         *******
 ***************************************************


 NATURAL POPULATIONS:  Natural atomic orbital occupancies

  NAO Atom No lang   Type(AO)    Occupancy      Energy
 -------------------------------------------------------
   1   Cl  1  s      Cor( 1s)     1.00000    -104.86009
   2   Cl  1  s      Cor( 2s)     1.00000     -10.62437
   3   Cl  1  s      Val( 3s)     0.99779      -1.01435
   4   Cl  1  s      Ryd( 4s)     0.00001       1.03942
   5   Cl  1  s      Ryd( 5s)     0.00000       9.85160
   6   Cl  1  s      Ryd( 6s)     0.00000     218.54522
   7   Cl  1  px     Cor( 2p)     0.99999      -8.05385
   8   Cl  1  px     Val( 3p)     0.01793      -0.03396
   9   Cl  1  px     Ryd( 4p)     0.00000       0.43722
  10   Cl  1  px     Ryd( 5p)     0.00000       2.56699
  11   Cl  1  px     Ryd( 6p)     0.00000      26.02959
  12   Cl  1  py     Cor( 2p)     1.00000      -8.07080
  13   Cl  1  py     Val( 3p)     0.98217      -0.47285
  14   Cl  1  py     Ryd( 4p)     0.00020       0.41841
  15   Cl  1  py     Ryd( 5p)     0.00000       2.55491
  16   Cl  1  py     Ryd( 6p)     0.00000      26.05533
  17   Cl  1  pz     Cor( 2p)     1.00000      -8.07110
  18   Cl  1  pz     Val( 3p)     0.99948      -0.48072
  19   Cl  1  pz     Ryd( 4p)     0.00021       0.41807
  20   Cl  1  pz     Ryd( 5p)     0.00000       2.55469
  21   Cl  1  pz     Ryd( 6p)     0.00000      26.05579
  22   Cl  1  dxy    Ryd( 3d)     0.00011       0.73010
  23   Cl  1  dxy    Ryd( 4d)     0.00000       2.65587
  24   Cl  1  dxz    Ryd( 3d)     0.00000       0.72956
  25   Cl  1  dxz    Ryd( 4d)     0.00000       2.65613
  26   Cl  1  dyz    Ryd( 3d)     0.00000       0.69661
  27   Cl  1  dyz    Ryd( 4d)     0.00000       2.67024
  28   Cl  1  dx2y2  Ryd( 3d)     0.00153       0.72942
  29   Cl  1  dx2y2  Ryd( 4d)     0.00000       2.65581
  30   Cl  1  dz2    Ryd( 3d)     0.00055       0.70714
  31   Cl  1  dz2    Ryd( 4d)     0.00000       2.66560


 Summary of Natural Population Analysis:

                                     Natural Population
             Natural    ---------------------------------------------
  Atom No    Charge        Core      Valence    Rydberg      Total
 --------------------------------------------------------------------
   Cl  1    0.50000      4.99999     2.99738    0.00263     8.00000
 ====================================================================
 * Total *  0.50000      4.99999     2.99738    0.00263     8.00000

                                 Natural Population
 ---------------------------------------------------------
   Core                       4.99999 ( 99.9999% of    5)
   Valence                    2.99738 ( 99.9127% of    3)
   Natural Minimal Basis      7.99737 ( 99.9672% of    8)
   Natural Rydberg Basis      0.00263 (  0.0328% of    8)
 ---------------------------------------------------------

    Atom No         Natural Electron Configuration
 ----------------------------------------------------------------------------
     Cl  1      [core]3s( 1.00)3p( 2.00)


 NATURAL BOND ORBITAL ANALYSIS, beta spin orbitals:

                            Occupancies       Lewis Structure    Low   High
         Max    Occ     -------------------  -----------------   occ   occ
  Cycle  Ctr   Thresh    Lewis   non-Lewis     CR  BD  nC  LP    (L)   (NL)
 ============================================================================
    1     1     0.50     7.99999   0.00001      5   0   0   3     0      0
 ----------------------------------------------------------------------------

 Structure accepted: No low occupancy Lewis orbitals

 -------------------------------------------------------
   Core                      4.99999 (100.000% of   5)
   Valence Lewis             3.00000 (100.000% of   3)
  ==================      =============================
   Total Lewis               7.99999 (100.000% of   8)
  -----------------------------------------------------
   Valence non-Lewis         0.00000 (  0.000% of   8)
   Rydberg non-Lewis         0.00001 (  0.000% of   8)
  ==================      =============================
   Total non-Lewis           0.00001 (  0.000% of   8)
 -------------------------------------------------------


     (Occupancy)   Bond orbital / Coefficients / Hybrids
 ------------------ Lewis ------------------------------------------------------
   1. (1.00000) CR ( 1)Cl  1            s(100.00%)
                                         1.0000  0.0000  0.0000  0.0000  0.0000
                                         0.0000  0.0000  0.0000  0.0000  0.0000
                                         0.0000  0.0000  0.0000  0.0000  0.0000
                                         0.0000  0.0000  0.0000  0.0000  0.0000
                                         0.0000  0.0000  0.0000  0.0000  0.0000
                                         0.0000  0.0000  0.0000  0.0000  0.0000
                                         0.0000
   2. (1.00000) CR ( 2)Cl  1            s(100.00%)
                                         0.0000  1.0000  0.0000  0.0000  0.0000
                                         0.0000  0.0000  0.0000  0.0000  0.0000
                                         0.0000  0.0000  0.0000  0.0000  0.0000
                                         0.0000  0.0000  0.0000  0.0000  0.0000
                                         0.0000  0.0000  0.0000  0.0000  0.0000
                                         0.0000  0.0000  0.0000  0.0000  0.0000
                                         0.0000
   3. (0.99999) CR ( 3)Cl  1            s(  0.00%)p 1.00(100.00%)
                                         0.0000  0.0000  0.0000  0.0000  0.0000
                                         0.0000  1.0000  0.0000  0.0000  0.0000
                                         0.0000  0.0000  0.0000  0.0000  0.0000
                                         0.0000  0.0000  0.0000  0.0000  0.0000
                                         0.0000  0.0000  0.0000  0.0000  0.0000
                                         0.0000  0.0000  0.0000  0.0000  0.0000
                                         0.0000
   4. (1.00000) CR ( 4)Cl  1            s(  0.00%)p 1.00(100.00%)
                                         0.0000  0.0000  0.0000  0.0000  0.0000
[...]
  11. (0.00000) RY ( 2)Cl  1            s( 77.50%)p 0.00(  0.00%)d 0.29( 22.50%)
  12. (0.00000) RY ( 3)Cl  1            s( 92.82%)p 0.00(  0.00%)d 0.08(  7.18%)
  13. (0.00000) RY ( 4)Cl  1            s( 90.10%)p 0.00(  0.00%)d 0.11(  9.90%)
  14. (0.00000) RY ( 5)Cl  1            s(  0.00%)p 1.00(100.00%)
  15. (0.00000) RY ( 6)Cl  1            s(  0.00%)p 1.00(100.00%)
  16. (0.00000) RY ( 7)Cl  1            s(  0.00%)p 1.00(100.00%)
  17. (0.00000) RY ( 8)Cl  1            s(  0.00%)p 1.00(100.00%)
  18. (0.00000) RY ( 9)Cl  1            s(  0.00%)p 1.00(100.00%)
  19. (0.00000) RY (10)Cl  1            s(  0.00%)p 1.00(100.00%)
  20. (0.00000) RY (11)Cl  1            s(  0.00%)p 1.00(100.00%)
  21. (0.00000) RY (12)Cl  1            s(  0.00%)p 1.00(100.00%)
  22. (0.00000) RY (13)Cl  1            s(  0.09%)p 0.00(  0.00%)d99.99( 99.91%)
  23. (0.00000) RY (14)Cl  1            s( 18.48%)p 0.00(  0.00%)d 4.41( 81.52%)
  24. (0.00000) RY (15)Cl  1            s(  0.00%)p 0.00(  0.00%)d 1.00(100.00%)
  25. (0.00000) RY (16)Cl  1            s(  0.00%)p 0.00(  0.00%)d 1.00(100.00%)
  26. (0.00000) RY (17)Cl  1            s(  0.00%)p 0.00(  0.00%)d 1.00(100.00%)
  27. (0.00000) RY (18)Cl  1            s(  0.00%)p 0.00(  0.00%)d 1.00(100.00%)
  28. (0.00000) RY (19)Cl  1            s( 10.15%)p 0.00(  0.00%)d 8.86( 89.85%)
  29. (0.00000) RY (20)Cl  1            s(  9.77%)p 0.00(  0.00%)d 9.24( 90.23%)
  30. (0.00000) RY (21)Cl  1            s(  0.42%)p 0.00(  0.00%)d99.99( 99.58%)
  31. (0.00000) RY (22)Cl  1            s(  0.89%)p 0.00(  0.00%)d99.99( 99.11%)


 NHO DIRECTIONALITY AND BOND BENDING (deviation from line of nuclear centers at
                                      the position of maximum hybrid amplitude)

         [Thresholds for printing:  angular deviation  >  1.0 degree]
                                    p- or d-character  > 25.0%
                                    orbital occupancy  >  0.10e

                        Line of Centers        Hybrid 1             Hybrid 2
                        ---------------  -------------------  ------------------
           NBO            Theta   Phi    Theta   Phi    Dev   Theta   Phi    Dev
 ===============================================================================
   7. LP ( 2)Cl  1          --     --     90.0  262.4   --      --     --    --
   8. LP ( 3)Cl  1          --     --      1.0  352.4   --      --     --    --


 SECOND ORDER PERTURBATION THEORY ANALYSIS OF FOCK MATRIX IN NBO BASIS

     Threshold for printing:   0.25 kcal/mol
                                                          E(2) E(NL)-E(L) F(L,NL)
      Donor (L) NBO              Acceptor (NL) NBO      kcal/mol   a.u.    a.u.
 ===============================================================================

 within unit  1
       None above threshold


 NATURAL BOND ORBITALS (Summary):

                                                     Principal Delocalizations
           NBO                 Occupancy    Energy   (geminal,vicinal,remote)
 ===============================================================================
 Molecular unit  1  (Cl)
 ------ Lewis --------------------------------------
    1. CR ( 1)Cl  1             1.00000  -104.86009
    2. CR ( 2)Cl  1             1.00000   -10.62437
    3. CR ( 3)Cl  1             0.99999    -8.05385
    4. CR ( 4)Cl  1             1.00000    -8.07080
    5. CR ( 5)Cl  1             1.00000    -8.07110
    6. LP ( 1)Cl  1             1.00000    -1.01821
    7. LP ( 2)Cl  1             1.00000    -0.48105
    8. LP ( 3)Cl  1             1.00000    -0.48105
 ------ non-Lewis ----------------------------------
    9. LV ( 1)Cl  1             0.00000    -0.02705
   10. RY ( 1)Cl  1             0.00001     2.27853
   11. RY ( 2)Cl  1             0.00000     2.33420
   12. RY ( 3)Cl  1             0.00000    28.96208
   13. RY ( 4)Cl  1             0.00000   176.08118
   14. RY ( 5)Cl  1             0.00000     0.72312
   15. RY ( 6)Cl  1             0.00000    26.03947
   16. RY ( 7)Cl  1             0.00000     1.02385
   17. RY ( 8)Cl  1             0.00000     1.93002
   18. RY ( 9)Cl  1             0.00000    26.06901
   19. RY (10)Cl  1             0.00000     1.02907
   20. RY (11)Cl  1             0.00000     1.93002
   21. RY (12)Cl  1             0.00000    26.06954
   22. RY (13)Cl  1             0.00000     0.74451
   23. RY (14)Cl  1             0.00000    16.64715
   24. RY (15)Cl  1             0.00000     0.72994
   25. RY (16)Cl  1             0.00000     2.65709
   26. RY (17)Cl  1             0.00000     0.69662
   27. RY (18)Cl  1             0.00000     2.67026
   28. RY (19)Cl  1             0.00000     7.73447
   29. RY (20)Cl  1             0.00000     3.25130
   30. RY (21)Cl  1             0.00000     0.83725
   31. RY (22)Cl  1             0.00000     2.99055
          -------------------------------
                 Total Lewis    7.99999  ( 99.9999%)
           Valence non-Lewis    0.00000  (  0.0000%)
           Rydberg non-Lewis    0.00001  (  0.0001%)
          -------------------------------
               Total unit  1    8.00000  (100.0000%)
              Charge unit  1    0.50000

 $CHOOSE
  ALPHA
   LONE 1 4 END
  END
  BETA
   LONE 1 3 END
  END
 $END

 NBO analysis completed in 0.06 CPU seconds (0 wall seconds)
 Maximum scratch memory used by NBO was 408738 words (3.12 MB)
Stopping NBO...Storing NBOs: Cl·.nbo

                                *** returned from  NBO  program ***

-------
TIMINGS
-------

Total SCF time: 0 days 0 hours 0 min 3 sec 

Total time                  ....       3.323 sec
Sum of individual times     ....       2.950 sec  ( 88.8%)

Fock matrix formation       ....       2.426 sec  ( 73.0%)
Diagonalization             ....       0.031 sec  (  0.9%)
Density matrix formation    ....       0.015 sec  (  0.5%)
Population analysis         ....       0.208 sec  (  6.3%)
Initial guess               ....       0.149 sec  (  4.5%)
Orbital Transformation      ....       0.000 sec  (  0.0%)
Orbital Orthonormalization  ....       0.000 sec  (  0.0%)
DIIS solution               ....       0.024 sec  (  0.7%)


           ************************************************************
           *        Program running with 12 parallel MPI-processes    *
           *              working on a common directory               *
           ************************************************************

------------------------------------------------------------------------------
                                ORCA  MP2 
------------------------------------------------------------------------------


----------
MP2 ENERGY (disk based algorithm)
----------

Dimension of the basis                    ...   31
Memory devoted to MP2                     ... 3000 MB   
Data format for buffers                   ... DOUBLE
Compression type for matrix containers    ... UNCOMPRESSED

-------------------------------
PARTIAL EXCHANGE TRANSFORMATION
-------------------------------

Transformation type                        ... two-operators
Generation of integrals (i,mue|j,nue)      ... ON
Generation of integrals (mue,kappa|nue,tau)... OFF
Generation of integrals (i,mue|a,nue)      ... OFF
Dimension of the basis                     ...   31
Number of internal alpha-MOs               ...    9 (   0-   8)
Number of internal beta-MOs                ...    8 (   0-   7)
Pair cutoff                                ... 2.500e-12 Eh
Number of AO pairs in the trafo            ...  496
Total Number of distinct AO pairs          ...  496
Memory devoted for trafo                   ... 3000.0 MB 
Max. Number of MO pairs treated together   ... 409173      
Number Format for Storage                  ... Double (8 Byte)
Integral package used                      ... LIBINT

Starting integral evaluation:
    ... done with AO integral generation
Closing buffer AOK[aa] ( 0.00 GB; CompressionRatio= 1.43)
Closing buffer AOK[bb] ( 0.00 GB; CompressionRatio= 1.47)
Closing buffer AOK[ab] ( 0.00 GB; CompressionRatio= 1.44)
Closing buffer AOK[ba] ( 0.00 GB; CompressionRatio= 1.48)
Collecting buffer AOK 
Number of alpha/alpha MO pairs in trafo    ...   45
Number of beta /beta  MO pairs in trafo    ...   36
Number of alpha/ beta MO pairs in trafo    ...   72
------------------------
SORTING OF (i,mue|j,nue)
------------------------

SORTING OF ALPHA/ALPHA PAIRS
IBATCH = 1 of  1
Closing buffer KAO[aa] ( 0.00 GB; CompressionRatio= 1.00)
Collecting buffer KAO 
SORTING OF BETA /BETA  PAIRS
IBATCH = 1 of  1
Closing buffer KAO[bb] ( 0.00 GB; CompressionRatio= 1.00)
Collecting buffer KAO 
SORTING OF ALPHA/BETA  PAIRS
IBATCH = 1 of  1
Closing buffer KAO[ab] ( 0.00 GB; CompressionRatio= 0.998441558442)
Collecting buffer KAO[ab] 
N(AO-Batches) Done                         ...       338 
N(AO-Batches) Skipped                      ...         0 
N(IJ)-pairs Skipped                        ...         0 
TOTAL TIME for half transformation         ...     0.081 sec
AO-integral generation                     ...     0.002 sec
Half transformation                        ...     0.001 sec
K-integral sorting                         ...     0.027 sec
Process  2:   Internal MO   2
Process  5:   Internal MO   5
Process  8:   Internal MO   8

Finished integral transformation - now doing MP2 part

OPERATOR COMBINATION   0   0: ij=(  0..  8,  0..  8)
Process  8:   Internal MO   8
Process  2:   Internal MO   2
Process  5:   Internal MO   5
OPERATOR COMBINATION   0   1: ij=(  0..  8,  0..  7)
Process  2:   Internal MO   2
OPERATOR COMBINATION   1   1: ij=(  0..  7,  0..  7)
Process  5:   Internal MO   5

Correlation energy components
 E2 and T2 for alpha/alpha pairs :     -0.029329156 Eh 
 E2 and T2 for beta/beta   pairs :     -0.017749106 Eh 
 E2 and T2 for alpha/beta  pairs :     -0.142226246 Eh 

-----------------------------------------------
 MP2 CORRELATION ENERGY   :     -0.189304508 Eh
-----------------------------------------------


-------
TIMINGS
-------
Total time                :    0.186 sec
Integral trafo            :    0.082 sec ( 43.9%)
K(i,j)                    :    0.000 sec (  0.1%)
T(i,j)                    :    0.000 sec (  0.0%)

---------------------------------------
MP2 TOTAL ENERGY:     -459.663210124 Eh
---------------------------------------

-------------------------   --------------------
FINAL SINGLE POINT ENERGY      -459.663210123911
-------------------------   --------------------


                            ***************************************
                            *     ORCA property calculations      *
                            ***************************************


  WARNING: The energy has been calculated at the MP2 level but the densities
           used in the property calculations are still SCF densities
           MP2 response densities have not been calculated 
           use %mp2 Density relaxed end
           or  %mp2 Density unrelaxed end

                                    ---------------------
                                    Active property flags
                                    ---------------------
   (+) Dipole Moment


------------------------------------------------------------------------------
                       ORCA ELECTRIC PROPERTIES CALCULATION
------------------------------------------------------------------------------

Dipole Moment Calculation                       ... on
Quadrupole Moment Calculation                   ... off
Polarizability Calculation                      ... off
GBWName                                         ... Cl·.gbw
Electron density file                           ... Cl·.scfp
The origin for moment calculation is the CENTER OF MASS  = ( 0.000000,  0.000000  0.000000)

-------------
DIPOLE MOMENT
-------------
                                X             Y             Z
Electronic contribution:     -0.00000      -0.00000       0.00000
Nuclear contribution   :      0.00000       0.00000       0.00000
                        -----------------------------------------
Total Dipole Moment    :     -0.00000      -0.00000       0.00000
                        -----------------------------------------
Magnitude (a.u.)       :      0.00000
Magnitude (Debye)      :      0.00000



--------------------
Rotational spectrum 
--------------------
 
Rotational constants in cm-1:     0.000000     0.000000     0.000000 
Rotational constants in MHz :     0.000000     0.000000     0.000000 

 Dipole components along the rotational axes: 
x,y,z [a.u.] :    -0.000000    -0.000000     0.000000 
x,y,z [Debye]:    -0.000000    -0.000000     0.000000 

 
------------------------------------------------------------------------------
                         ORCA MP2 H E S S I A N CALCULATION
------------------------------------------------------------------------------

Calculating analytic MP2 second derivatives ... (>Cl·.last_mp2) done
Warning: T+R mode no 3 is zero 
Warning: T+R mode no 4 is zero 
Warning: T+R mode no 5 is zero 
WARNING     : the number of degrees of freedom found cannot be correct
CONSEQUENCE : will not project translation and rotation

-----------------------
VIBRATIONAL FREQUENCIES
-----------------------

Scaling factor for frequencies =  1.000000000  (already applied!)

   0:         0.00 cm**-1
   1:         0.00 cm**-1
   2:         0.00 cm**-1


------------
NORMAL MODES
------------

These modes are the Cartesian displacements weighted by the diagonal matrix
M(i,i)=1/sqrt(m[i]) where m[i] is the mass of the displaced atom
Thus, these vectors are normalized but *not* orthogonal

                   0          1          2    
      0       0.000058   0.001581  -0.999999
      1      -0.000178   0.999999   0.001581
      2       1.000000   0.000178   0.000058


-----------
IR SPECTRUM
-----------

 Mode    freq (cm**-1)   T**2         TX         TY         TZ
-------------------------------------------------------------------

The first frequency considered to be a vibration is 0
The total number of vibrations considered is 3


--------------------------
THERMOCHEMISTRY AT 298.15K
--------------------------

Temperature         ... 298.15 K
Pressure            ... 1.00 atm
Total Mass          ... 35.45 AMU
The molecule is recognized as being linear

Throughout the following assumptions are being made:
  (1) The electronic state is orbitally nondegenerate
      but the spin degeneracy is treated
  (2) There are no thermally accessible electronically excited states
  (3) Hindered rotations indicated by low frequency modes are not
      treated as such but are treated as vibrations and this may
      cause some error
  (4) All equations used are the standard statistical mechanics
      equations for an ideal gas
  (5) All vibrations are strictly harmonic

freq.       0.00  E(vib)   ...       0.59 
freq.       0.00  E(vib)   ...       0.59 
freq.       0.00  E(vib)   ...       0.59 

------------
INNER ENERGY
------------

The inner energy is: U= E(el) + E(ZPE) + E(vib) + E(rot) + E(trans)
    E(el)   - is the total energy from the electronic structure calculation
              = E(kin-el) + E(nuc-el) + E(el-el) + E(nuc-nuc)
    E(ZPE)  - the the zero temperature vibrational energy from the frequency calculation
    E(vib)  - the the finite temperature correction to E(ZPE) due to population
              of excited vibrational states
    E(rot)  - is the rotational thermal energy
    E(trans)- is the translational thermal energy

Summary of contributions to the inner energy U:
Electronic energy                ...   -459.66321012 Eh
Zero point energy                ...      0.00000003 Eh       0.00 kcal/mol
Thermal vibrational correction   ...      0.00283260 Eh       1.78 kcal/mol
Thermal rotational correction    ...      0.00000000 Eh       0.00 kcal/mol
Thermal translational correction ...      0.00141627 Eh       0.89 kcal/mol
-----------------------------------------------------------------------
Total thermal energy                   -459.65896123 Eh


Summary of corrections to the electronic energy:
(perhaps to be used in another calculation)
Total thermal correction                  0.00424887 Eh       2.67 kcal/mol
Non-thermal (ZPE) correction              0.00000003 Eh       0.00 kcal/mol
-----------------------------------------------------------------------
Total correction                          0.00424890 Eh       2.67 kcal/mol


--------
ENTHALPY
--------

The enthalpy is H = U + kB*T
                kB is Boltzmann's constant
Total free energy                 ...   -459.65896123 Eh 
Thermal Enthalpy correction       ...      0.00094421 Eh       0.59 kcal/mol
-----------------------------------------------------------------------
Total Enthalpy                    ...   -459.65801702 Eh


Note: Rotational entropy computed according to Herzberg 
Infrared and Raman Spectra, Chapter V,1, Van Nostrand Reinhold, 1945 
Point Group:  Kh, Symmetry Number:   1  
Rotational constants in cm-1:     0.000000     0.000000     0.000000 

Vibrational entropy computed according to the QRRHO of S. Grimme
Chem.Eur.J. 2012 18 9955


-------
ENTROPY
-------

The entropy contributions are T*S = T*(S(el)+S(vib)+S(rot)+S(trans))
     S(el)   - electronic entropy
     S(vib)  - vibrational entropy
     S(rot)  - rotational entropy
     S(trans)- translational entropy
The entropies will be listed as mutliplied by the temperature to get
units of energy

Electronic entropy                ...      0.00065446 Eh      0.41 kcal/mol
Vibrational entropy               ...            -inf Eh      -inf kcal/mol
Rotational entropy                ...      0.00000000 Eh      0.00 kcal/mol
Translational entropy             ...      0.01740262 Eh     10.92 kcal/mol
-----------------------------------------------------------------------
Final entropy term                ...            -inf Eh      -inf kcal/mol

In case the symmetry of your molecule has not been determined correctly
or in case you have a reason to use a different symmetry number we print 
out the resulting rotational entropy values for sn=1,12 :
 --------------------------------------------------------
|  sn= 1 | S(rot)=             -inf Eh      -inf kcal/mol|
|  sn= 2 | S(rot)=             -inf Eh      -inf kcal/mol|
|  sn= 3 | S(rot)=             -inf Eh      -inf kcal/mol|
|  sn= 4 | S(rot)=             -inf Eh      -inf kcal/mol|
|  sn= 5 | S(rot)=             -inf Eh      -inf kcal/mol|
|  sn= 6 | S(rot)=             -inf Eh      -inf kcal/mol|
|  sn= 7 | S(rot)=             -inf Eh      -inf kcal/mol|
|  sn= 8 | S(rot)=             -inf Eh      -inf kcal/mol|
|  sn= 9 | S(rot)=             -inf Eh      -inf kcal/mol|
|  sn=10 | S(rot)=             -inf Eh      -inf kcal/mol|
|  sn=11 | S(rot)=             -inf Eh      -inf kcal/mol|
|  sn=12 | S(rot)=             -inf Eh      -inf kcal/mol|
 --------------------------------------------------------


-------------------
GIBBS FREE ENERGY
-------------------

The Gibbs free energy is G = H - T*S

Total enthalpy                    ...   -459.65801702 Eh 
Total entropy correction          ...             inf Eh       inf kcal/mol
-----------------------------------------------------------------------
Final Gibbs free energy         ...             inf Eh

For completeness - the Gibbs free energy minus the electronic energy
G-E(el)                           ...             inf Eh       inf kcal/mol


Timings for individual modules:

Sum of individual times         ...       10.658 sec (=   0.178 min)
GTO integral calculation        ...        0.725 sec (=   0.012 min)   6.8 %
SCF iterations                  ...        3.621 sec (=   0.060 min)  34.0 %
MP2 module                      ...        0.519 sec (=   0.009 min)   4.9 %
Analytical frequency calculation...        5.794 sec (=   0.097 min)  54.4 %
                             ****ORCA TERMINATED NORMALLY****
TOTAL RUN TIME: 0 days 0 hours 0 minutes 11 seconds 92 msec
