
                                 *****************
                                 * O   R   C   A *
                                 *****************

           --- An Ab Initio, DFT and Semiempirical electronic structure package ---

                  #######################################################
                  #                        -***-                        #
                  #          Department of theory and spectroscopy      #
                  #               Directorship: Frank Neese             #
                  #        Max Planck Institute fuer Kohlenforschung    #
                  #                Kaiser Wilhelm Platz 1               #
                  #                 D-45470 Muelheim/Ruhr               #
                  #                      Germany                        #
                  #                                                     #
                  #                  All rights reserved                #
                  #                        -***-                        #
                  #######################################################


                         Program Version 4.2.1 -  RELEASE  -


 With contributions from (in alphabetic order):
   Daniel Aravena         : Magnetic Suceptibility
   Michael Atanasov       : Ab Initio Ligand Field Theory (pilot matlab implementation)
   Alexander A. Auer      : GIAO ZORA, VPT2
   Ute Becker             : Parallelization
   Giovanni Bistoni       : ED, misc. LED, open-shell LED, HFLD
   Martin Brehm           : Molecular dynamics
   Dmytro Bykov           : SCF Hessian
   Vijay G. Chilkuri      : MRCI spin determinant printing, contributions to CSF-ICE
   Dipayan Datta          : RHF DLPNO-CCSD density
   Achintya Kumar Dutta   : EOM-CC, STEOM-CC
   Dmitry Ganyushin       : Spin-Orbit,Spin-Spin,Magnetic field MRCI
   Miquel Garcia          : C-PCM Hessian, Gaussian charge scheme
   Yang Guo               : DLPNO-NEVPT2, CIM, IAO-localization
   Andreas Hansen         : Spin unrestricted coupled pair/coupled cluster methods
   Benjamin Helmich-Paris : CASSCF linear response (MC-RPA)
   Lee Huntington         : MR-EOM, pCC
   Robert Izsak           : Overlap fitted RIJCOSX, COSX-SCS-MP3, EOM
   Christian Kollmar      : KDIIS, OOCD, Brueckner-CCSD(T), CCSD density
   Simone Kossmann        : Meta GGA functionals, TD-DFT gradient, OOMP2, MP2 Hessian
   Martin Krupicka        : AUTO-CI
   Lucas Lang             : DCDCAS
   Dagmar Lenk            : GEPOL surface, SMD
   Dimitrios Liakos       : Extrapolation schemes; Compound Job, initial MDCI parallelization
   Dimitrios Manganas     : Further ROCIS development; embedding schemes
   Dimitrios Pantazis     : SARC Basis sets
   Taras Petrenko         : DFT Hessian,TD-DFT gradient, ASA, ECA, R-Raman, ABS, FL, XAS/XES, NRVS
   Peter Pinski           : DLPNO-MP2, DLPNO-MP2 Gradient
   Christoph Reimann      : Effective Core Potentials
   Marius Retegan         : Local ZFS, SOC
   Christoph Riplinger    : Optimizer, TS searches, QM/MM, DLPNO-CCSD(T), (RO)-DLPNO pert. Triples
   Tobias Risthaus        : Range-separated hybrids, TD-DFT gradient, RPA, STAB
   Michael Roemelt        : Original ROCIS implementation
   Masaaki Saitow         : Open-shell DLPNO-CCSD energy and density
   Barbara Sandhoefer     : DKH picture change effects
   Avijit Sen             : IP-ROCIS
   Kantharuban Sivalingam : CASSCF convergence, NEVPT2, FIC-MRCI
   Bernardo de Souza      : ESD, SOC TD-DFT
   Georgi Stoychev        : AutoAux, RI-MP2 NMR
   Willem Van den Heuvel  : Paramagnetic NMR
   Boris Wezisla          : Elementary symmetry handling
   Frank Wennmohs         : Technical directorship


 We gratefully acknowledge several colleagues who have allowed us to
 interface, adapt or use parts of their codes:
   Stefan Grimme, W. Hujo, H. Kruse,             : VdW corrections, initial TS optimization,
                  C. Bannwarth                     DFT functionals, gCP, sTDA/sTD-DF
   Ed Valeev, F. Pavosevic, A. Kumar             : LibInt (2-el integral package), F12 methods
   Garnet Chan, S. Sharma, J. Yang, R. Olivares  : DMRG
   Ulf Ekstrom                                   : XCFun DFT Library
   Mihaly Kallay                                 : mrcc  (arbitrary order and MRCC methods)
   Andreas Klamt, Michael Diedenhofen            : otool_cosmo (COSMO solvation model)
   Jiri Pittner, Ondrej Demel                    : Mk-CCSD
   Frank Weinhold                                : gennbo (NPA and NBO analysis)
   Christopher J. Cramer and Donald G. Truhlar   : smd solvation model
   Lars Goerigk                                  : TD-DFT with DH, B97 family of functionals
   V. Asgeirsson, H. Jonsson                     : NEB implementation
   FAccTs GmbH                                   : IRC, NEB, NEB-TS, Multilevel, MM, QM/MM, CI optimization
   S Lehtola, MJT Oliveira, MAL Marques          : LibXC Library


 Your calculation uses the libint2 library for the computation of 2-el integrals
 For citations please refer to: http://libint.valeyev.net

 Your ORCA version has been built with support for libXC version: 4.2.3
 For citations please refer to: https://tddft.org/programs/libxc/

 This ORCA versions uses:
   CBLAS   interface :  Fast vector & matrix operations
   LAPACKE interface :  Fast linear algebra routines
   SCALAPACK package :  Parallel linear algebra routines


----- Orbital basis set information -----
Your calculation utilizes the basis: 6-311G(2d,p)
   H, Li - Ne  : R. Krishnan, J. S. Binkley, R. Seeger and J. A. Pople, J. Chem. Phys. 72, 650 (1980).
   Na - Ar     : A. D. McLean and G. S. Chandler J. Chem. Phys. 72, 5639, (1980).
   K  - Ca     : J.-P. Blaudeau, M. P. McGrath, L. A. Curtiss and L. Radom, J. Chem. Phys. 107, 5016 (1997).
   Ga - Kr     : L. A. Curtiss, M. P. McGrath, J.-P. Blandeau, N. E. Davis, R. C. Binning and L. Radom, J. Chem. Phys. 103, 6104 (1995).
   Pol./Diff.
   H, Li - Cl  : T. Clark, J. Chandrasekhar and P. v. R. Schleyer, J. Comp. Chem. 4, 294 (1983).
   H - Ne      : M. J. Frisch, J. A. Pople and J. S. Binkley, J. Chem. Phys. 80, 3265 (1984).

================================================================================
                                        WARNINGS
                       Please study these warnings very carefully!
================================================================================


WARNING: Geometry Optimization
  ===> : Switching off AutoStart
         For restart on a previous wavefunction, please use MOREAD

WARNING: Post HF methods need fully converged wavefunctions
  ===> : Setting SCFConvForced true
         You can overwrite this default with %scf ConvForced false 


INFO   : the flag for use of LIBINT has been found!

================================================================================
                                       INPUT FILE
================================================================================
NAME = H3CHCl‡.inp
|  1> ! UHF MP2 6-311G(2d,p) OptTS Freq IRC NoFrozenCore TightOpt TightSCF Grid4 FinalGrid5 PrintBasis PrintMOs NBO
|  2> %maxcore 2000
|  3> 
|  4> *xyz 0 2
|  5> C        0.000084000      0.000009000      1.937284000
|  6> H       -1.056738000      0.000072000      2.154239000
|  7> H        0.528433000     -0.915241000      2.154332000
|  8> H       -0.000001000     -0.000097000      0.597378000
|  9> H        0.528527000      0.915228000      2.154201000
| 10> Cl      -0.000303000      0.000029000     -0.853145000
| 11> *
| 12> 
| 13> %pal
| 14>  nprocs 12
| 15> end
| 16> 
| 17> %geom
| 18>  inhess read
| 19>  inhessname "freq.hess"
| 20>  ts_mode
| 21>   {B 0 3}
| 22>  end
| 23>  ts_active_atoms
| 24>   {0 3 5}
| 25>  end
| 26>  modify_internal
| 27>   {B 0 3 A}
| 28>   {B 3 5 A}
| 29>  end
| 30> end
| 31> 
| 32> %irc
| 33>  maxiter 1000
| 34>  de_init_displ 0.25
| 35> end
| 36> 
| 37>                          ****END OF INPUT****
================================================================================

                       *****************************
                       * Geometry Optimization Run *
                       *****************************

Geometry optimization settings:
Update method            Update   .... Bofill
Choice of coordinates    CoordSys .... Z-matrix Internals
Initial Hessian          InHess   .... Read

Convergence Tolerances:
Energy Change            TolE     ....  1.0000e-06 Eh
Max. Gradient            TolMAXG  ....  1.0000e-04 Eh/bohr
RMS Gradient             TolRMSG  ....  3.0000e-05 Eh/bohr
Max. Displacement        TolMAXD  ....  1.0000e-03 bohr
RMS Displacement         TolRMSD  ....  6.0000e-04 bohr
Strict Convergence                ....  False
------------------------------------------------------------------------------
                        ORCA OPTIMIZATION COORDINATE SETUP
------------------------------------------------------------------------------

The optimization will be done in new redundant internal coordinates
Making redundant internal coordinates   ...  (new redundants) Bond   3,  0 is already included
Bond   5,  3 is already included
done
Following TS mode number                ...    internal coordinate number:  3
TS-active-atoms for coordinate setup... 0 3 5 
Evaluating the initial hessian          ... (Reading Exact Hessian)...  
InHessName: freq.hess	The file <freq.hess> is opened as a .hess file
done
done
Diagonalizing the Hessian               .... done
Dimension of the hessian                .... 14
Lowest eigenvalues of the non projected Hessian:
 -0.035903064  0.000000000  0.000000000  0.001547554  0.019552186
done
Evaluating the coordinates              ...  done
Calculating the B-matrix                .... done
Calculating the G-matrix                .... done
Diagonalizing the G-matrix              .... done
The first mode is                       ....    2
The number of degrees of freedom        ....   12

    -----------------------------------------------------------------
                    Redundant Internal Coordinates


    -----------------------------------------------------------------
         Definition                    Initial Value    d2E/dq (diagonal element)
    -----------------------------------------------------------------
      1. B(H   1,C   0)                  1.0789         0.373695   
      2. B(H   2,C   0)                  1.0789         0.373680   
      3. B(H   3,C   0)                  1.3399        -0.016322   
      4. B(H   4,C   0)                  1.0789         0.373685   
      5. B(Cl  5,C   0)                  2.7904         0.039041   
      6. B(Cl  5,H   3)                  1.4505         0.017272   
      7. A(H   1,C   0,H   2)          116.0602         0.083683   
      8. A(H   1,C   0,H   4)          116.0611         0.083684   
      9. A(H   1,C   0,H   3)          101.5974         0.064698   
     10. A(H   2,C   0,H   4)          116.0621         0.083673   
     11. A(H   3,C   0,H   4)          101.6048         0.064698   
     12. A(H   2,C   0,H   3)          101.6040         0.064701   
     13. L(C   0,H   3,Cl  5,H   1, 1) 179.9917         0.019777   
     14. L(C   0,H   3,Cl  5,H   1, 2) 179.9831         0.001560   
    -----------------------------------------------------------------

Number of atoms                         .... 6
Number of degrees of freedom            .... 14

         *************************************************************
         *                GEOMETRY OPTIMIZATION CYCLE   1            *
         *************************************************************
---------------------------------
CARTESIAN COORDINATES (ANGSTROEM)
---------------------------------
  C      0.000084    0.000009    1.937284
  H     -1.056738    0.000072    2.154239
  H      0.528433   -0.915241    2.154332
  H     -0.000001   -0.000097    0.597378
  H      0.528527    0.915228    2.154201
  Cl    -0.000303    0.000029   -0.853145

----------------------------
CARTESIAN COORDINATES (A.U.)
----------------------------
  NO LB      ZA    FRAG     MASS         X           Y           Z
   0 C     6.0000    0    12.011    0.000159    0.000017    3.660936
   1 H     1.0000    0     1.008   -1.996945    0.000136    4.070922
   2 H     1.0000    0     1.008    0.998594   -1.729555    4.071097
   3 H     1.0000    0     1.008   -0.000002   -0.000183    1.128881
   4 H     1.0000    0     1.008    0.998771    1.729530    4.070850
   5 Cl   17.0000    0    35.453   -0.000573    0.000055   -1.612210

--------------------------------
INTERNAL COORDINATES (ANGSTROEM)
--------------------------------
 C      0   0   0     0.000000000000     0.00000000     0.00000000
 H      1   0   0     1.078861536842     0.00000000     0.00000000
 H      1   2   0     1.078862856254   116.06023616     0.00000000
 H      1   2   3     1.339906006889   101.59743710   109.20437234
 H      1   2   3     1.078856249506   116.06108958   218.41004330
 Cl     4   1   2     1.450523036911   179.98738136    48.90260338

---------------------------
INTERNAL COORDINATES (A.U.)
---------------------------
 C      0   0   0     0.000000000000     0.00000000     0.00000000
 H      1   0   0     2.038752841054     0.00000000     0.00000000
 H      1   2   0     2.038755334381   116.06023616     0.00000000
 H      1   2   3     2.532055398216   101.59743710   109.20437234
 H      1   2   3     2.038742849436   116.06108958   218.41004330
 Cl     4   1   2     2.741091290705   179.98738136    48.90260338

---------------------
BASIS SET INFORMATION
---------------------
There are 3 groups of distinct atoms

 Group   1 Type C   : 11s5p2d contracted to 4s3p2d pattern {6311/311/11}
 Group   2 Type H   : 5s1p contracted to 3s1p pattern {311/1}
 Group   3 Type Cl  : 13s10p2d contracted to 6s5p2d pattern {631111/52111/11}

Atom   0C    basis set group =>   1
Atom   1H    basis set group =>   2
Atom   2H    basis set group =>   2
Atom   3H    basis set group =>   2
Atom   4H    basis set group =>   2
Atom   5Cl   basis set group =>   3

-------------------------
BASIS SET IN INPUT FORMAT
-------------------------

 # Basis set for element : H 
 NewGTO H 
 S 3 
   1      33.8650000000      0.0254938145
   2       5.0947900000      0.1903731086
   3       1.1587900000      0.8521614860
 S 1 
   1       0.3258400000      1.0000000000
 S 1 
   1       0.1027410000      1.0000000000
 P 1 
   1       0.7500000000      1.0000000000
  end;

 # Basis set for element : C 
 NewGTO C 
 S 6 
   1    4563.2400000000      0.0019666502
   2     682.0240000000      0.0152306019
   3     154.9730000000      0.0761269097
   4      44.4553000000      0.2608010331
   5      13.0290000000      0.6164620782
   6       1.8277300000      0.2210060280
 S 3 
   1      20.9642000000      0.1146600807
   2       4.8033100000      0.9199996477
   3       1.4593300000     -0.0030306821
 P 3 
   1      20.9642000000      0.0402486927
   2       4.8033100000      0.2375939567
   3       1.4593300000      0.8158538515
 S 1 
   1       0.4834560000      1.0000000000
 P 1 
   1       0.4834560000      1.0000000000
 S 1 
   1       0.1455850000      1.0000000000
 P 1 
   1       0.1455850000      1.0000000000
 D 1 
   1       1.2520000000      1.0000000000
 D 1 
   1       0.3130000000      1.0000000000
  end;

 # Basis set for element : Cl
 NewGTO Cl
 S 6 
   1  105819.0000000000      0.0007380002
   2   15872.0000000000      0.0057180019
   3    3619.6500000000      0.0294950099
   4    1030.8000000000      0.1172860392
   5     339.9080000000      0.3629491212
   6     124.5380000000      0.5841491951
 S 3 
   1     124.5380000000      0.1341769734
   2      49.5135000000      0.6242498762
   3      20.8056000000      0.2917559421
 S 1 
   1       6.5834600000      1.0000000000
 S 1 
   1       2.5646800000      1.0000000000
 S 1 
   1       0.5597630000      1.0000000000
 S 1 
   1       0.1832730000      1.0000000000
 P 5 
   1     589.7760000000      0.0023909997
   2     139.8490000000      0.0185039976
   3      45.1413000000      0.0813769893
   4      16.8733000000      0.2215519708
   5       6.7411000000      0.7725688983
 P 2 
   1       6.7411000000     -1.5722438126
   2       2.7715200000      0.9923888817
 P 1 
   1       1.0238700000      1.0000000000
 P 1 
   1       0.3813680000      1.0000000000
 P 1 
   1       0.1094370000      1.0000000000
 D 1 
   1       1.5000000000      1.0000000000
 D 1 
   1       0.3750000000      1.0000000000
  end;



           ************************************************************
           *        Program running with 12 parallel MPI-processes    *
           *              working on a common directory               *
           ************************************************************
------------------------------------------------------------------------------
                           ORCA GTO INTEGRAL CALCULATION
------------------------------------------------------------------------------

                         BASIS SET STATISTICS AND STARTUP INFO

 # of primitive gaussian shells          ...   67
 # of primitive gaussian functions       ...  121
 # of contracted shells                  ...   38
 # of contracted basis functions         ...   78
 Highest angular momentum                ...    2
 Maximum contraction depth               ...    6
 Integral package used                   ... LIBINT
 Integral threshhold            Thresh   ...  2.500e-11
 Primitive cut-off              TCut     ...  2.500e-12


------------------------------ INTEGRAL EVALUATION ----------------------------


 * One electron integrals 
 Pre-screening matrix                    ... done
 Shell pair data                         ... done (   0.000 sec)



           ************************************************************
           *        Program running with 12 parallel MPI-processes    *
           *              working on a common directory               *
           ************************************************************
-------------------------------------------------------------------------------
                                 ORCA SCF
-------------------------------------------------------------------------------

------------
SCF SETTINGS
------------
Hamiltonian:
 Ab initio Hamiltonian  Method          .... Hartree-Fock(GTOs)


General Settings:
 Integral files         IntName         .... H3CHCl‡
 Hartree-Fock type      HFTyp           .... UHF
 Total Charge           Charge          ....    0
 Multiplicity           Mult            ....    2
 Number of Electrons    NEL             ....   27
 Basis Dimension        Dim             ....   78
 Nuclear Repulsion      ENuc            ....     46.9210599865 Eh

Convergence Acceleration:
 DIIS                   CNVDIIS         .... on
   Start iteration      DIISMaxIt       ....    12
   Startup error        DIISStart       ....  0.200000
   # of expansion vecs  DIISMaxEq       ....     5
   Bias factor          DIISBfac        ....   1.050
   Max. coefficient     DIISMaxC        ....  10.000
 Newton-Raphson         CNVNR           .... off
 SOSCF                  CNVSOSCF        .... off
 Level Shifting         CNVShift        .... on
   Level shift para.    LevelShift      ....    0.2500
   Turn off err/grad.   ShiftErr        ....    0.0010
 Zerner damping         CNVZerner       .... off
 Static damping         CNVDamp         .... on
   Fraction old density DampFac         ....    0.7000
   Max. Damping (<1)    DampMax         ....    0.9800
   Min. Damping (>=0)   DampMin         ....    0.0000
   Turn off err/grad.   DampErr         ....    0.1000
 Fernandez-Rico         CNVRico         .... off

SCF Procedure:
 Maximum # iterations   MaxIter         ....   125
 SCF integral mode      SCFMode         .... Direct
   Integral package                     .... LIBINT
 Reset frequency        DirectResetFreq ....    20
 Integral Threshold     Thresh          ....  2.500e-11 Eh
 Primitive CutOff       TCut            ....  2.500e-12 Eh

Convergence Tolerance:
 Convergence Check Mode ConvCheckMode   .... Total+1el-Energy
 Convergence forced     ConvForced      .... 1
 Energy Change          TolE            ....  1.000e-08 Eh
 1-El. energy change                    ....  1.000e-05 Eh
 DIIS Error             TolErr          ....  5.000e-07


Diagonalization of the overlap matrix:
Smallest eigenvalue                        ... 5.828e-03
Time for diagonalization                   ...    0.002 sec
Threshold for overlap eigenvalues          ... 1.000e-08
Number of eigenvalues below threshold      ... 0
Time for construction of square roots      ...    0.011 sec
Total time needed                          ...    0.015 sec

-------------------
DFT GRID GENERATION
-------------------

General Integration Accuracy     IntAcc      ...  4.670
Radial Grid Type                 RadialGrid  ... Gauss-Chebyshev
Angular Grid (max. acc.)         AngularGrid ... Lebedev-302
Angular grid pruning method      GridPruning ... 3 (G Style)
Weight generation scheme         WeightScheme... Becke
Basis function cutoff            BFCut       ...    1.0000e-11
Integration weight cutoff        WCut        ...    1.0000e-14
Grids for H and He will be reduced by one unit

# of grid points (after initial pruning)     ...  26526 (   0.0 sec)
# of grid points (after weights+screening)   ...  25705 (   0.0 sec)
nearest neighbour list constructed           ...    0.0 sec
Grid point re-assignment to atoms done       ...    0.0 sec
Grid point division into batches done        ...    0.2 sec
Reduced shell lists constructed in    0.2 sec

Total number of grid points                  ...    25705
Total number of batches                      ...      405
Average number of points per batch           ...       63
Average number of grid points per atom       ...     4284
Average number of shells per batch           ...    30.31 (79.77%)
Average number of basis functions per batch  ...    62.71 (80.40%)
Average number of large shells per batch     ...    28.60 (94.34%)
Average number of large basis fcns per batch ...    57.57 (91.80%)
Maximum spatial batch extension              ...   1.47,  1.65,  3.00 au
Average spatial batch extension              ...   0.08,  0.08,  0.08 au

Time for grid setup =    0.297 sec

------------------------------
INITIAL GUESS: MODEL POTENTIAL
------------------------------
Loading Hartree-Fock densities                     ... done
Calculating cut-offs                               ... done
Setting up the integral package                    ... done
Initializing the effective Hamiltonian             ... done
Starting the Coulomb interaction                   ... done (   0.0 sec)
Reading the grid                                   ... done
Mapping shells                                     ... done
Starting the XC term evaluation                    ... done (   0.0 sec)
Transforming the Hamiltonian                       ... done (   0.0 sec)
Diagonalizing the Hamiltonian                      ... done (   0.0 sec)
Back transforming the eigenvectors                 ... done (   0.0 sec)
Now organizing SCF variables                       ... done
                      ------------------
                      INITIAL GUESS DONE (   0.5 sec)
                      ------------------
--------------
SCF ITERATIONS
--------------
ITER       Energy         Delta-E        Max-DP      RMS-DP      [F,P]     Damp
               ***  Starting incremental Fock matrix formation  ***
  0   -499.5464367701   0.000000000000 0.02611329  0.00065803  0.6491622 0.7000
  1   -499.5791205970  -0.032683826857 0.01840932  0.00050942  0.4562553 0.7000
  2   -499.6002656728  -0.021145075857 0.01094041  0.00034275  0.3206272 0.7000
  3   -499.6143493315  -0.014083658672 0.00619399  0.00023247  0.2253648 0.7000
                               ***Turning on DIIS***
  4   -499.6241662348  -0.009816903254 0.00420061  0.00016686  0.1584305 0.7000
  5   -499.7039472619  -0.079781027188 0.00426155  0.00014364  0.1113867 0.7000
  6   -499.6973501159   0.006597146032 0.01323675  0.00042571  0.0781158 0.0000
  7   -499.6513371696   0.046012946327 0.00325269  0.00010661  0.0053535 0.0000
  8   -499.6474454560   0.003891713572 0.00303121  0.00010683  0.0036985 0.0000
  9   -499.6494880539  -0.002042597878 0.00158816  0.00006229  0.0021569 0.0000
 10   -499.6489618106   0.000526243298 0.00078313  0.00003407  0.0011292 0.0000
 11   -499.6494435956  -0.000481784979 0.00093536  0.00003039  0.0006169 0.0000
 12   -499.6495938549  -0.000150259353 0.00035764  0.00000985  0.0001373 0.0000
 13   -499.6496659578  -0.000072102875 0.00025003  0.00000585  0.0000746 0.0000
 14   -499.6497687209  -0.000102763153 0.00011552  0.00000289  0.0000248 0.0000
 15   -499.6498066323  -0.000037911380 0.00002169  0.00000095  0.0000106 0.0000
 16   -499.6498298912  -0.000023258906 0.00001293  0.00000050  0.0000036 0.0000
 17   -499.6498286370   0.000001254191 0.00000396  0.00000016  0.0000012 0.0000
                            ***DIIS convergence achieved***

               *****************************************************
               *                     SUCCESS                       *
               *           SCF CONVERGED AFTER  18 CYCLES          *
               *****************************************************


----------------
TOTAL SCF ENERGY
----------------

Total Energy       :         -499.64982983 Eh          -13596.16309 eV

Components:
Nuclear Repulsion  :           46.92105999 Eh            1276.78695 eV
Electronic Energy  :         -546.57088982 Eh          -14872.95004 eV
One Electron Energy:         -781.82193176 Eh          -21274.45634 eV
Two Electron Energy:          235.25104194 Eh            6401.50630 eV

Virial components:
Potential Energy   :         -999.35555105 Eh          -27193.84705 eV
Kinetic Energy     :          499.70572122 Eh           13597.68397 eV
Virial Ratio       :            1.99988815


---------------
SCF CONVERGENCE
---------------

  Last Energy change         ...   -1.1943e-06  Tolerance :   1.0000e-08
  Last MAX-Density change    ...    1.9613e-06  Tolerance :   1.0000e-07
  Last RMS-Density change    ...    6.6673e-08  Tolerance :   5.0000e-09
  Last DIIS Error            ...    2.5935e-07  Tolerance :   5.0000e-07

             **** THE GBW FILE WAS UPDATED (H3CHCl‡.gbw) ****
             **** DENSITY FILE WAS UPDATED (H3CHCl‡.scfp) ****
             **** ENERGY FILE WAS UPDATED (H3CHCl‡.en.tmp) ****
----------------------
UHF SPIN CONTAMINATION
----------------------

Expectation value of <S**2>     :     0.784886
Ideal value S*(S+1) for S=0.5   :     0.750000
Deviation                       :     0.034886

             **** THE GBW FILE WAS UPDATED (H3CHCl‡.gbw) ****
             **** DENSITY FILE WAS UPDATED (H3CHCl‡.scfp) ****
----------------
ORBITAL ENERGIES
----------------
                 SPIN UP ORBITALS
  NO   OCC          E(Eh)            E(eV) 
   0   1.0000    -104.823779     -2852.4000 
   1   1.0000     -11.281248      -306.9784 
   2   1.0000     -10.549648      -287.0705 
   3   1.0000      -8.027290      -218.4337 
   4   1.0000      -8.013120      -218.0481 
   5   1.0000      -8.013120      -218.0481 
   6   1.0000      -1.104612       -30.0580 
   7   1.0000      -1.003744       -27.3133 
   8   1.0000      -0.649145       -17.6641 
   9   1.0000      -0.619995       -16.8709 
  10   1.0000      -0.619990       -16.8708 
  11   1.0000      -0.454822       -12.3763 
  12   1.0000      -0.454822       -12.3763 
  13   1.0000      -0.420704       -11.4479 
  14   0.0000       0.145550         3.9606 
  15   0.0000       0.207479         5.6458 
  16   0.0000       0.207482         5.6459 
  17   0.0000       0.266525         7.2525 
  18   0.0000       0.326622         8.8878 
  19   0.0000       0.377851        10.2819 
  20   0.0000       0.377858        10.2820 
  21   0.0000       0.451734        12.2923 
  22   0.0000       0.458806        12.4847 
  23   0.0000       0.458817        12.4850 
  24   0.0000       0.531368        14.4593 
  25   0.0000       0.618414        16.8279 
  26   0.0000       0.618427        16.8283 
  27   0.0000       0.688946        18.7472 
  28   0.0000       0.688946        18.7472 
  29   0.0000       0.742761        20.2116 
  30   0.0000       0.742765        20.2117 
  31   0.0000       0.759279        20.6610 
  32   0.0000       0.804169        21.8826 
  33   0.0000       0.804173        21.8827 
  34   0.0000       0.886028        24.1100 
  35   0.0000       0.996768        27.1234 
  36   0.0000       1.159595        31.5542 
  37   0.0000       1.159610        31.5546 
  38   0.0000       1.197984        32.5988 
  39   0.0000       1.426123        38.8068 
  40   0.0000       1.644940        44.7611 
  41   0.0000       1.705876        46.4192 
  42   0.0000       1.705906        46.4201 
  43   0.0000       1.955313        53.2068 
  44   0.0000       2.087191        56.7954 
  45   0.0000       2.087255        56.7971 
  46   0.0000       2.382065        64.8193 
  47   0.0000       2.382077        64.8196 
  48   0.0000       2.417245        65.7766 
  49   0.0000       2.475556        67.3633 
  50   0.0000       2.479681        67.4756 
  51   0.0000       2.479706        67.4762 
  52   0.0000       2.579394        70.1889 
  53   0.0000       2.579417        70.1895 
  54   0.0000       2.724567        74.1392 
  55   0.0000       2.750697        74.8503 
  56   0.0000       2.750708        74.8506 
  57   0.0000       2.760969        75.1298 
  58   0.0000       2.760969        75.1298 
  59   0.0000       2.823497        76.8313 
  60   0.0000       2.823504        76.8314 
  61   0.0000       2.879422        78.3531 
  62   0.0000       2.944294        80.1183 
  63   0.0000       3.115916        84.7884 
  64   0.0000       3.420804        93.0848 
  65   0.0000       3.420819        93.0852 
  66   0.0000       3.562016        96.9274 
  67   0.0000       3.562023        96.9276 
  68   0.0000       3.690406       100.4211 
  69   0.0000       4.240428       115.3879 
  70   0.0000       4.528294       123.2211 
  71   0.0000       4.528309       123.2215 
  72   0.0000      10.419123       283.5188 
  73   0.0000      25.014455       680.6779 
  74   0.0000      26.293098       715.4716 
  75   0.0000      26.293101       715.4717 
  76   0.0000      27.122366       738.0371 
  77   0.0000     219.273096      5966.7243 

                 SPIN DOWN ORBITALS
  NO   OCC          E(Eh)            E(eV) 
   0   1.0000    -104.817513     -2852.2295 
   1   1.0000     -11.262779      -306.4758 
   2   1.0000     -10.543063      -286.8913 
   3   1.0000      -8.009473      -217.9488 
   4   1.0000      -8.009473      -217.9488 
   5   1.0000      -8.001478      -217.7313 
   6   1.0000      -1.051120       -28.6024 
   7   1.0000      -0.932335       -25.3701 
   8   1.0000      -0.608004       -16.5446 
   9   1.0000      -0.608000       -16.5445 
  10   1.0000      -0.554461       -15.0876 
  11   1.0000      -0.443056       -12.0562 
  12   1.0000      -0.443056       -12.0562 
  13   0.0000       0.014718         0.4005 
  14   0.0000       0.154515         4.2046 
  15   0.0000       0.212420         5.7802 
  16   0.0000       0.212423         5.7803 
  17   0.0000       0.290524         7.9056 
  18   0.0000       0.338324         9.2063 
  19   0.0000       0.380268        10.3476 
  20   0.0000       0.380275        10.3478 
  21   0.0000       0.464608        12.6426 
  22   0.0000       0.464620        12.6430 
  23   0.0000       0.490076        13.3356 
  24   0.0000       0.615774        16.7561 
  25   0.0000       0.642078        17.4718 
  26   0.0000       0.642091        17.4722 
  27   0.0000       0.692643        18.8478 
  28   0.0000       0.692643        18.8478 
  29   0.0000       0.767085        20.8734 
  30   0.0000       0.767087        20.8735 
  31   0.0000       0.780605        21.2413 
  32   0.0000       0.836054        22.7502 
  33   0.0000       0.836061        22.7504 
  34   0.0000       0.912481        24.8299 
  35   0.0000       1.044568        28.4241 
  36   0.0000       1.168121        31.7862 
  37   0.0000       1.168137        31.7866 
  38   0.0000       1.220223        33.2039 
  39   0.0000       1.445809        39.3425 
  40   0.0000       1.642293        44.6891 
  41   0.0000       1.707325        46.4587 
  42   0.0000       1.707354        46.4595 
  43   0.0000       1.966303        53.5058 
  44   0.0000       2.086189        56.7681 
  45   0.0000       2.086252        56.7698 
  46   0.0000       2.383999        64.8719 
  47   0.0000       2.384011        64.8722 
  48   0.0000       2.455967        66.8303 
  49   0.0000       2.484325        67.6019 
  50   0.0000       2.484348        67.6026 
  51   0.0000       2.487326        67.6836 
  52   0.0000       2.581012        70.2329 
  53   0.0000       2.581035        70.2335 
  54   0.0000       2.725774        74.1721 
  55   0.0000       2.757837        75.0446 
  56   0.0000       2.757848        75.0449 
  57   0.0000       2.763806        75.2070 
  58   0.0000       2.763808        75.2070 
  59   0.0000       2.835868        77.1679 
  60   0.0000       2.835872        77.1680 
  61   0.0000       2.894069        78.7516 
  62   0.0000       2.969525        80.8049 
  63   0.0000       3.128092        85.1197 
  64   0.0000       3.438692        93.5716 
  65   0.0000       3.438709        93.5720 
  66   0.0000       3.605807        98.1190 
  67   0.0000       3.605813        98.1192 
  68   0.0000       3.727191       101.4220 
  69   0.0000       4.281533       116.5064 
  70   0.0000       4.542831       123.6167 
  71   0.0000       4.542845       123.6171 
  72   0.0000      10.428055       283.7618 
  73   0.0000      25.027500       681.0329 
  74   0.0000      26.295944       715.5490 
  75   0.0000      26.295947       715.5491 
  76   0.0000      27.134594       738.3698 
  77   0.0000     219.276586      5966.8192 
------------------
MOLECULAR ORBITALS
------------------
                      0         1         2         3         4         5   
                 -104.82378 -11.28125 -10.54965  -8.02729  -8.01312  -8.01312
                   1.00000   1.00000   1.00000   1.00000   1.00000   1.00000
                  --------  --------  --------  --------  --------  --------
  0C   1s        -0.000000 -0.563057  0.000014  0.000004  0.000000 -0.000000
  0C   2s        -0.000000 -0.466444 -0.000013 -0.000011  0.000000 -0.000000
  0C   1pz       -0.000001  0.000216 -0.000079 -0.000045 -0.000000  0.000000
  0C   1px        0.000000 -0.000000  0.000000 -0.000000 -0.000001  0.000014
  0C   1py       -0.000000  0.000000 -0.000000 -0.000000  0.000014  0.000001
  0C   3s         0.000008 -0.005631  0.000829  0.000253 -0.000000  0.000000
  0C   2pz        0.000003  0.000101  0.000204  0.000124  0.000000 -0.000000
  0C   2px       -0.000000  0.000000 -0.000000 -0.000000  0.000006 -0.000057
  0C   2py        0.000000 -0.000000  0.000000  0.000000 -0.000057 -0.000006
  0C   4s        -0.000058  0.001781 -0.006108 -0.001434  0.000000 -0.000000
  0C   3pz        0.000041 -0.000545  0.004292  0.001009  0.000000 -0.000000
  0C   3px       -0.000000 -0.000000 -0.000001 -0.000000  0.000011 -0.000101
  0C   3py        0.000000 -0.000000  0.000001  0.000000 -0.000101 -0.000011
  0C   1dz2      -0.000001 -0.000441  0.000024  0.000052 -0.000000  0.000000
  0C   1dxz      -0.000000 -0.000000 -0.000000 -0.000000  0.000001 -0.000011
  0C   1dyz       0.000000 -0.000000  0.000000  0.000000 -0.000011 -0.000001
  0C   1dx2y2    -0.000000  0.000000 -0.000000 -0.000000 -0.000000  0.000001
  0C   1dxy      -0.000000 -0.000000 -0.000000 -0.000000 -0.000001 -0.000000
  0C   2dz2      -0.000008  0.000222 -0.000921 -0.000370 -0.000000 -0.000000
  0C   2dxz       0.000000  0.000000  0.000000 -0.000000 -0.000007  0.000069
  0C   2dyz      -0.000000  0.000000 -0.000000 -0.000000  0.000069  0.000007
  0C   2dx2y2     0.000000  0.000000  0.000000  0.000000 -0.000005  0.000050
  0C   2dxy       0.000000 -0.000000  0.000000  0.000000 -0.000050 -0.000005
  1H   1s        -0.000001 -0.000358 -0.000113 -0.000038 -0.000000  0.000003
  1H   2s         0.000004 -0.000006  0.000494  0.000131  0.000012 -0.000111
  1H   3s        -0.000011 -0.000207 -0.001051 -0.000128 -0.000006  0.000052
  1H   1pz       -0.000001 -0.000012 -0.000067 -0.000029 -0.000003  0.000025
  1H   1px        0.000000  0.000040  0.000022  0.000001  0.000002 -0.000015
  1H   1py        0.000000 -0.000000  0.000000  0.000000 -0.000003 -0.000000
  2H   1s        -0.000001 -0.000358 -0.000113 -0.000038  0.000003 -0.000001
  2H   2s         0.000004 -0.000006  0.000495  0.000131 -0.000102  0.000045
  2H   3s        -0.000011 -0.000207 -0.001051 -0.000128  0.000048 -0.000021
  2H   1pz       -0.000001 -0.000012 -0.000067 -0.000029  0.000023 -0.000010
  2H   1px       -0.000000 -0.000020 -0.000011 -0.000001  0.000006 -0.000005
  2H   1py        0.000000  0.000035  0.000019  0.000001 -0.000013  0.000004
  3H   1s         0.000000 -0.000133  0.000020  0.000051 -0.000000  0.000000
  3H   2s         0.000012 -0.000573  0.002328  0.001637 -0.000000 -0.000000
  3H   3s         0.000138 -0.000863  0.012724  0.001259  0.000000 -0.000000
  3H   1pz        0.000014 -0.000004  0.000732 -0.000245  0.000000 -0.000000
  3H   1px        0.000000  0.000000  0.000000 -0.000000 -0.000013  0.000119
  3H   1py       -0.000000 -0.000000  0.000000  0.000000  0.000119  0.000013
  4H   1s        -0.000001 -0.000358 -0.000113 -0.000038 -0.000002 -0.000002
  4H   2s         0.000004 -0.000006  0.000494  0.000131  0.000090  0.000066
  4H   3s        -0.000011 -0.000207 -0.001051 -0.000128 -0.000042 -0.000031
  4H   1pz       -0.000001 -0.000012 -0.000067 -0.000029 -0.000021 -0.000015
  4H   1px       -0.000000 -0.000020 -0.000011 -0.000001 -0.000005 -0.000007
  4H   1py       -0.000000 -0.000035 -0.000019 -0.000001 -0.000012 -0.000007
  5Cl  1s         0.411723 -0.000001 -0.121963  0.000459 -0.000000  0.000000
  5Cl  2s         0.654658  0.000000 -0.331575  0.001266 -0.000000  0.000000
  5Cl  3s         0.012120 -0.000014  0.512465 -0.002010  0.000000 -0.000000
  5Cl  4s        -0.000928  0.000034  0.604486 -0.002547  0.000000 -0.000000
  5Cl  5s         0.000225 -0.000157  0.045054  0.000918 -0.000000 -0.000000
  5Cl  6s        -0.000181  0.000589 -0.016207 -0.001299 -0.000000  0.000000
  5Cl  1pz        0.000083  0.000021  0.004113  1.230569  0.000102 -0.000237
  5Cl  1px        0.000000  0.000000  0.000001  0.000246 -0.129768  1.224458
  5Cl  1py       -0.000000 -0.000000 -0.000000 -0.000076  1.224458  0.129768
  5Cl  2pz        0.000049  0.000023  0.000984  0.327158  0.000027 -0.000063
  5Cl  2px        0.000000  0.000000  0.000000  0.000065 -0.034491  0.325449
  5Cl  2py       -0.000000 -0.000000 -0.000000 -0.000020  0.325449  0.034491
  5Cl  3pz       -0.000050 -0.000086  0.000787  0.050755  0.000004 -0.000009
  5Cl  3px       -0.000000 -0.000000  0.000000  0.000010 -0.005186  0.048931
  5Cl  3py        0.000000  0.000000 -0.000000 -0.000003  0.048931  0.005186
  5Cl  4pz        0.000030  0.000274 -0.000380 -0.002958 -0.000000  0.000000
  5Cl  4px        0.000000  0.000000  0.000000 -0.000001  0.000221 -0.002086
  5Cl  4py       -0.000000 -0.000000 -0.000000  0.000000 -0.002086 -0.000221
  5Cl  5pz       -0.000052  0.000111 -0.003990  0.000426  0.000000 -0.000000
  5Cl  5px       -0.000000  0.000000 -0.000001  0.000000 -0.000072  0.000676
  5Cl  5py        0.000000 -0.000000  0.000001  0.000000  0.000676  0.000072
  5Cl  1dz2       0.000004 -0.000004  0.001056  0.000561  0.000000 -0.000000
  5Cl  1dxz       0.000000 -0.000000  0.000000  0.000000 -0.000051  0.000486
  5Cl  1dyz      -0.000000  0.000000 -0.000000 -0.000000  0.000486  0.000051
  5Cl  1dx2y2    -0.000000 -0.000000 -0.000000  0.000000  0.000000  0.000000
  5Cl  1dxy       0.000000 -0.000000  0.000000  0.000000  0.000000 -0.000000
  5Cl  2dz2      -0.000004  0.000079 -0.000852 -0.000477 -0.000000  0.000000
  5Cl  2dxz      -0.000000  0.000000 -0.000000 -0.000000  0.000010 -0.000095
  5Cl  2dyz       0.000000 -0.000000  0.000000  0.000000 -0.000095 -0.000010
  5Cl  2dx2y2     0.000000  0.000000  0.000000 -0.000000  0.000000 -0.000001
  5Cl  2dxy      -0.000000  0.000000 -0.000000 -0.000000  0.000001  0.000000
                      6         7         8         9        10        11   
                  -1.10461  -1.00374  -0.64915  -0.62000  -0.61999  -0.45482
                   1.00000   1.00000   1.00000   1.00000   1.00000   1.00000
                  --------  --------  --------  --------  --------  --------
  0C   1s        -0.032168 -0.101416 -0.013622 -0.000000  0.000003 -0.000000
  0C   2s        -0.053483 -0.168528 -0.022020 -0.000000  0.000004 -0.000000
  0C   1pz       -0.014286 -0.002656  0.129519  0.000021 -0.000029 -0.000008
  0C   1px       -0.000002 -0.000001  0.000052 -0.059885  0.190746  0.001196
  0C   1py       -0.000000 -0.000000  0.000006 -0.190747 -0.059884 -0.015651
  0C   3s         0.135494  0.439234  0.051434 -0.000000 -0.000010 -0.000001
  0C   2pz       -0.034958 -0.017982  0.221348  0.000033 -0.000052 -0.000013
  0C   2px       -0.000003 -0.000002  0.000082 -0.093431  0.297601  0.001812
  0C   2py       -0.000003 -0.000002  0.000011 -0.297600 -0.093430 -0.023708
  0C   4s         0.105675  0.289373  0.033889  0.000003 -0.000005  0.000016
  0C   3pz       -0.033285 -0.002980  0.156826  0.000023 -0.000041 -0.000024
  0C   3px        0.000002 -0.000001  0.000053 -0.062472  0.198990  0.000288
  0C   3py       -0.000007 -0.000001  0.000008 -0.198986 -0.062471 -0.003753
  0C   1dz2       0.003910  0.001158 -0.013733 -0.000000  0.000004  0.000000
  0C   1dxz       0.000001  0.000000  0.000001 -0.001423  0.004535  0.000090
  0C   1dyz       0.000000  0.000000 -0.000002 -0.004535 -0.001425 -0.001173
  0C   1dx2y2     0.000000 -0.000000 -0.000004  0.004768 -0.015193 -0.000121
  0C   1dxy       0.000000  0.000000 -0.000000 -0.015193 -0.004767 -0.001580
  0C   2dz2       0.014175  0.012620 -0.017386 -0.000001  0.000007  0.000003
  0C   2dxz       0.000000 -0.000000  0.000000 -0.000895  0.002854  0.000213
  0C   2dyz       0.000003  0.000002 -0.000003 -0.002854 -0.000897 -0.002784
  0C   2dx2y2    -0.000001  0.000000 -0.000006  0.005802 -0.018492  0.000238
  0C   2dxy      -0.000002  0.000000 -0.000000 -0.018490 -0.005802  0.003122
  1H   1s         0.022081  0.080416  0.039192  0.049024 -0.156185 -0.001052
  1H   2s         0.028826  0.107238  0.055881  0.072271 -0.230247 -0.002453
  1H   3s         0.005324 -0.002497  0.014714  0.019323 -0.061563 -0.001047
  1H   1pz       -0.001174 -0.003478  0.005852 -0.001334  0.004251  0.000037
  1H   1px        0.006068  0.019585  0.007444  0.006867 -0.021879 -0.000229
  1H   1py       -0.000000 -0.000001 -0.000000 -0.009523 -0.002988 -0.000410
  2H   1s         0.022079  0.080415  0.039258  0.110744  0.120532  0.012426
  2H   2s         0.028817  0.107239  0.055976  0.163259  0.177690  0.028970
  2H   3s         0.005322 -0.002497  0.014734  0.043652  0.047511  0.012386
  2H   1pz       -0.001173 -0.003480  0.005849 -0.003016 -0.003285 -0.000438
  2H   1px       -0.003033 -0.009791 -0.003724 -0.014121 -0.002593 -0.001508
  2H   1py        0.005254  0.016961  0.006457  0.009761  0.017998  0.002257
  3H   1s         0.068520  0.035809 -0.128741 -0.000006  0.000032 -0.000000
  3H   2s         0.065958  0.057039 -0.237022 -0.000013  0.000058 -0.000009
  3H   3s        -0.061963  0.002902  0.010193 -0.000000 -0.000002 -0.000015
  3H   1pz       -0.010439  0.019717 -0.000130  0.000002 -0.000001  0.000004
  3H   1px       -0.000003  0.000002  0.000005 -0.003226  0.010277 -0.001189
  3H   1py        0.000002  0.000001 -0.000004 -0.010276 -0.003226  0.015556
  4H   1s         0.022080  0.080416  0.039254 -0.159761  0.035623 -0.011378
  4H   2s         0.028824  0.107239  0.055969 -0.235521  0.052516 -0.026529
  4H   3s         0.005323 -0.002497  0.014735 -0.062970  0.014041 -0.011339
  4H   1pz       -0.001173 -0.003477  0.005850  0.004350 -0.000971  0.000400
  4H   1px       -0.003034 -0.009793 -0.003725  0.013072  0.005942  0.001442
  4H   1py       -0.005255 -0.016961 -0.006455  0.018295 -0.009192  0.002033
  5Cl  1s         0.033183 -0.013229  0.008194  0.000001 -0.000002  0.000000
  5Cl  2s         0.096032 -0.038344  0.023908  0.000002 -0.000005  0.000000
  5Cl  3s        -0.189893  0.076319 -0.048906 -0.000003  0.000010 -0.000000
  5Cl  4s        -0.379240  0.151291 -0.092856 -0.000006  0.000018  0.000000
  5Cl  5s         0.567519 -0.229372  0.140540  0.000009 -0.000027 -0.000002
  5Cl  6s         0.537035 -0.223310  0.181217  0.000013 -0.000036  0.000008
  5Cl  1pz       -0.036211 -0.013626  0.215636  0.000017 -0.000053 -0.000020
  5Cl  1px       -0.000007 -0.000002  0.000040  0.005151 -0.016408  0.025449
  5Cl  1py        0.000002  0.000000 -0.000016  0.016406  0.005150 -0.333014
  5Cl  2pz       -0.008961 -0.003520  0.052630  0.000004 -0.000013 -0.000005
  5Cl  2px       -0.000002 -0.000001  0.000010  0.001244 -0.003962  0.006075
  5Cl  2py        0.000001  0.000000 -0.000004  0.003962  0.001244 -0.079491
  5Cl  3pz        0.023262  0.009411 -0.153783 -0.000012  0.000038  0.000014
  5Cl  3px        0.000005  0.000001 -0.000029 -0.003680  0.011722 -0.018288
  5Cl  3py       -0.000002 -0.000000  0.000011 -0.011721 -0.003680  0.239318
  5Cl  4pz        0.059630  0.017390 -0.357544 -0.000028  0.000090  0.000039
  5Cl  4px        0.000011  0.000003 -0.000067 -0.008803  0.028040 -0.045357
  5Cl  4py       -0.000004 -0.000001  0.000027 -0.028037 -0.008802  0.593528
  5Cl  5pz        0.026684 -0.001449 -0.140390 -0.000011  0.000037  0.000024
  5Cl  5px        0.000006 -0.000001 -0.000027 -0.004016  0.012791 -0.026046
  5Cl  5py       -0.000003  0.000001  0.000011 -0.012788 -0.004015  0.340830
  5Cl  1dz2       0.012648 -0.000243 -0.015832 -0.000001  0.000003  0.000000
  5Cl  1dxz       0.000004 -0.000000 -0.000005 -0.000471  0.001501 -0.000408
  5Cl  1dyz      -0.000001  0.000000  0.000002 -0.001501 -0.000471  0.005338
  5Cl  1dx2y2     0.000000 -0.000000  0.000000  0.000003 -0.000009 -0.000000
  5Cl  1dxy      -0.000000 -0.000000  0.000000 -0.000009 -0.000003 -0.000007
  5Cl  2dz2       0.027284 -0.004084 -0.018917 -0.000001  0.000005  0.000003
  5Cl  2dxz       0.000010 -0.000002 -0.000007 -0.000750  0.002389 -0.001540
  5Cl  2dyz      -0.000004  0.000001  0.000004 -0.002388 -0.000749  0.020157
  5Cl  2dx2y2     0.000000  0.000000 -0.000000  0.000094 -0.000301 -0.000002
  5Cl  2dxy       0.000000  0.000000 -0.000000 -0.000301 -0.000095 -0.000034
                     12        13        14        15        16        17   
                  -0.45482  -0.42070   0.14555   0.20748   0.20748   0.26653
                   1.00000   1.00000   0.00000   0.00000   0.00000   0.00000
                  --------  --------  --------  --------  --------  --------
  0C   1s         0.000000  0.015630 -0.046863 -0.000001  0.000000 -0.007336
  0C   2s         0.000001  0.027436 -0.075903 -0.000001  0.000001 -0.010446
  0C   1pz       -0.000005  0.190682  0.043152 -0.000006  0.000007 -0.098470
  0C   1px        0.015653  0.000001  0.000003 -0.031794 -0.129362  0.000000
  0C   1py        0.001196  0.000010 -0.000001  0.129362 -0.031793 -0.000009
  0C   3s        -0.000003 -0.082894  0.082567 -0.000001 -0.000007 -0.032786
  0C   2pz       -0.000007  0.329735  0.057997 -0.000003  0.000010 -0.090886
  0C   2px        0.023710 -0.000001 -0.000000 -0.024809 -0.100941 -0.000000
  0C   2py        0.001812  0.000019  0.000001  0.100937 -0.024806 -0.000006
  0C   4s         0.000008 -0.191906  2.055480  0.000058  0.000036  0.764997
  0C   3pz       -0.000014  0.349013  0.205360 -0.000077  0.000018 -1.240761
  0C   3px        0.003755 -0.000008 -0.000003 -0.285010 -1.159674 -0.000104
  0C   3py        0.000286  0.000029 -0.000001  1.159681 -0.285020 -0.000047
  0C   1dz2      -0.000000 -0.009443  0.004555  0.000001  0.000000 -0.019137
  0C   1dxz       0.001173 -0.000000  0.000000  0.001159  0.004713 -0.000000
  0C   1dyz       0.000090 -0.000001  0.000000 -0.004713  0.001158 -0.000004
  0C   1dx2y2    -0.001580 -0.000000 -0.000000 -0.002362 -0.009608 -0.000001
  0C   1dxy       0.000121 -0.000000  0.000000 -0.009607  0.002363 -0.000001
  0C   2dz2       0.000002 -0.024595  0.000955  0.000003  0.000005  0.045990
  0C   2dxz       0.002784  0.000001  0.000004  0.000593  0.002420  0.000017
  0C   2dyz       0.000213 -0.000006 -0.000002 -0.002419  0.000596 -0.000006
  0C   2dx2y2     0.003125  0.000003  0.000003  0.004226  0.017184  0.000007
  0C   2dxy      -0.000240  0.000002  0.000002  0.017183 -0.004226  0.000001
  1H   1s        -0.013746  0.023882 -0.018337 -0.004905 -0.019949  0.024613
  1H   2s        -0.032050  0.042175  0.003520  0.019997  0.081337  0.019079
  1H   3s        -0.013698  0.026887 -0.954821 -0.523097 -2.127858  0.483246
  1H   1pz        0.000483  0.011667  0.004002 -0.001047 -0.004256 -0.000270
  1H   1px       -0.002998  0.003686  0.001392  0.004180  0.017002 -0.003271
  1H   1py        0.000031  0.000001  0.000000  0.006500 -0.001599  0.000001
  2H   1s         0.005961  0.023888 -0.018335  0.019726  0.005728  0.024624
  2H   2s         0.013898  0.042200  0.003558 -0.080450 -0.023362  0.019175
  2H   3s         0.005942  0.026895 -0.954917  2.104280  0.610910  0.483341
  2H   1pz       -0.000210  0.011665  0.004000  0.004212  0.001224 -0.000270
  2H   1px       -0.000329 -0.001845 -0.000698  0.010023 -0.003127  0.001633
  2H   1py        0.001311  0.003196  0.001209 -0.013629 -0.007442 -0.002830
  3H   1s        -0.000000 -0.036313  0.001236  0.000003  0.000008 -0.067744
  3H   2s        -0.000006 -0.016392  0.003426  0.000001  0.000012 -0.341142
  3H   3s        -0.000010  0.002563 -0.252914  0.000000 -0.000004 -3.684646
  3H   1pz        0.000004 -0.047842 -0.006864 -0.000001  0.000000  0.003599
  3H   1px       -0.015555 -0.000008 -0.000000 -0.000418 -0.001703  0.000003
  3H   1py       -0.001189  0.000001 -0.000000  0.001703 -0.000419 -0.000003
  4H   1s         0.007782  0.023883 -0.018336 -0.014823  0.014220  0.024611
  4H   2s         0.018145  0.042182  0.003539  0.060451 -0.057997  0.019097
  4H   3s         0.007757  0.026886 -0.954859 -1.581261  1.516912  0.483277
  4H   1pz       -0.000274  0.011666  0.004001 -0.003163  0.003035 -0.000273
  4H   1px       -0.000555 -0.001844 -0.000697 -0.010332  0.001877  0.001635
  4H   1py       -0.001639 -0.003193 -0.001207 -0.008625  0.012913  0.002834
  5Cl  1s        -0.000000  0.002095  0.002898  0.000000  0.000000  0.013409
  5Cl  2s         0.000000  0.006066  0.008486  0.000001  0.000000  0.040295
  5Cl  3s        -0.000000 -0.011995 -0.017621 -0.000001 -0.000001 -0.092360
  5Cl  4s         0.000000 -0.025839 -0.034239 -0.000003 -0.000002 -0.127222
  5Cl  5s        -0.000002  0.047027  0.054462  0.000007  0.000004  0.064531
  5Cl  6s         0.000006  0.042253  0.154425  0.000006  0.000006  1.611829
  5Cl  1pz       -0.000063 -0.251988 -0.021291 -0.000000  0.000000  0.007376
  5Cl  1px        0.333014 -0.000044 -0.000001  0.003671  0.014945 -0.000015
  5Cl  1py        0.025449  0.000004  0.000000 -0.014937  0.003673  0.000018
  5Cl  2pz       -0.000015 -0.060529 -0.005193 -0.000000  0.000000 -0.001230
  5Cl  2px        0.079491 -0.000011 -0.000000  0.000703  0.002861 -0.000004
  5Cl  2py        0.006075  0.000001 -0.000000 -0.002859  0.000703  0.000004
  5Cl  3pz        0.000045  0.184937  0.017799  0.000000 -0.000001  0.016654
  5Cl  3px       -0.239318  0.000032  0.000001 -0.001658 -0.006751  0.000015
  5Cl  3py       -0.018288 -0.000003  0.000000  0.006745 -0.001659 -0.000014
  5Cl  4pz        0.000114  0.452672  0.038696  0.000001  0.000004 -0.137196
  5Cl  4px       -0.593528  0.000079  0.000003 -0.013037 -0.053062  0.000015
  5Cl  4py       -0.045357 -0.000007 -0.000001  0.053048 -0.013041 -0.000037
  5Cl  5pz        0.000066  0.259672  0.139874  0.000003 -0.000006  1.506451
  5Cl  5px       -0.340830  0.000043  0.000016  0.005787  0.023527  0.000318
  5Cl  5py       -0.026046 -0.000001 -0.000003 -0.023546  0.005783 -0.000134
  5Cl  1dz2       0.000001  0.002199 -0.000639  0.000002  0.000002 -0.037733
  5Cl  1dxz      -0.005338  0.000001  0.000001  0.000260  0.001062 -0.000020
  5Cl  1dyz      -0.000408 -0.000001 -0.000000 -0.001058  0.000261  0.000013
  5Cl  1dx2y2    -0.000010  0.000000 -0.000000 -0.000564 -0.002294  0.000000
  5Cl  1dxy       0.000001  0.000000 -0.000000 -0.002293  0.000564  0.000000
  5Cl  2dz2       0.000007 -0.004543  0.011313  0.000006  0.000010  0.004757
  5Cl  2dxz      -0.020157 -0.000002  0.000004  0.000973  0.003967 -0.000025
  5Cl  2dyz      -0.001540  0.000000 -0.000000 -0.003955  0.000974  0.000029
  5Cl  2dx2y2    -0.000042 -0.000000 -0.000000 -0.002900 -0.011796  0.000000
  5Cl  2dxy       0.000004 -0.000000 -0.000000 -0.011793  0.002901 -0.000000
                     18        19        20        21        22        23   
                   0.32662   0.37785   0.37786   0.45173   0.45881   0.45882
                   0.00000   0.00000   0.00000   0.00000   0.00000   0.00000
                  --------  --------  --------  --------  --------  --------
  0C   1s         0.007612  0.000000 -0.000001 -0.003379 -0.000002 -0.000001
  0C   2s         0.013231  0.000001 -0.000002 -0.007063 -0.000004 -0.000003
  0C   1pz        0.010159 -0.000006  0.000004  0.059833  0.000018  0.000028
  0C   1px        0.000006  0.002629 -0.006956  0.000001 -0.011801 -0.002662
  0C   1py       -0.000000 -0.006954 -0.002629  0.000002 -0.002665  0.011796
  0C   3s        -0.095440  0.000013  0.000003 -0.031492  0.000016  0.000005
  0C   2pz        0.001552  0.000003 -0.000004 -0.015930 -0.000007  0.000002
  0C   2px        0.000005 -0.027648  0.073142 -0.000027  0.028215  0.006368
  0C   2py        0.000002  0.073138  0.027649  0.000023  0.006371 -0.028216
  0C   4s         0.645014 -0.000211  0.000154  0.622897  0.000103  0.000143
  0C   3pz        0.216008 -0.000203  0.000139  0.815763  0.000344  0.000475
  0C   3px       -0.000100 -0.578606  1.530725 -0.000592  0.890837  0.201132
  0C   3py        0.000063  1.530591  0.578644  0.000599  0.201126 -0.891010
  0C   1dz2       0.018433 -0.000004  0.000006  0.020655  0.000008  0.000010
  0C   1dxz       0.000002  0.002373 -0.006274  0.000006 -0.002097 -0.000474
  0C   1dyz       0.000002 -0.006276 -0.002371 -0.000002 -0.000473  0.002098
  0C   1dx2y2    -0.000002 -0.006839  0.018086 -0.000007  0.008526  0.001926
  0C   1dxy      -0.000001 -0.018083 -0.006840 -0.000006 -0.001926  0.008527
  0C   2dz2       0.014373 -0.000011 -0.000009  0.076397 -0.000004  0.000023
  0C   2dxz       0.000013 -0.000099  0.000227 -0.000051  0.104087  0.023498
  0C   2dyz      -0.000008  0.000238  0.000076  0.000067  0.023493 -0.104066
  0C   2dx2y2     0.000008  0.066867 -0.176808  0.000014 -0.088872 -0.020067
  0C   2dxy       0.000006  0.176774  0.066857  0.000025  0.020084 -0.088853
  1H   1s        -0.018331 -0.018855  0.049880 -0.039609  0.016419  0.003695
  1H   2s        -0.382338 -0.464331  1.228314 -0.381231  0.756965  0.170840
  1H   3s         0.374105 -0.068464  0.181076 -0.247808 -0.134716 -0.030528
  1H   1pz        0.012834  0.004304 -0.011393  0.001244 -0.015325 -0.003460
  1H   1px       -0.015998 -0.027931  0.073886 -0.002825  0.048459  0.010941
  1H   1py        0.000003  0.032129  0.012143  0.000014  0.004583 -0.020308
  2H   1s        -0.018314  0.052638 -0.008619 -0.039557 -0.005018 -0.016112
  2H   2s        -0.382129  1.296042 -0.212108 -0.380057 -0.230578 -0.741315
  2H   3s         0.373966  0.190976 -0.031215 -0.247874  0.040872  0.131520
  2H   1pz        0.012842 -0.012028  0.001969  0.001248  0.004664  0.014998
  2H   1px        0.007993 -0.034169  0.035737  0.001375  0.024594  0.018361
  2H   1py       -0.013846  0.070281  0.005902 -0.002394 -0.002836 -0.044174
  3H   1s         0.092674 -0.000013  0.000003  0.061399  0.000011  0.000022
  3H   2s         1.056159 -0.000059  0.000131 -0.276957 -0.000003 -0.000064
  3H   3s        -1.986216  0.000447 -0.000168  0.903510  0.000436  0.000544
  3H   1pz        0.013328 -0.000005  0.000011  0.031260  0.000010  0.000011
  3H   1px        0.000003 -0.000813  0.002156  0.000005  0.022242  0.005022
  3H   1py        0.000001  0.002164  0.000820 -0.000000  0.005023 -0.022255
  4H   1s        -0.018319 -0.033763 -0.041286 -0.039589 -0.011445  0.012364
  4H   2s        -0.382193 -0.831446 -1.016508 -0.380864 -0.526686  0.570108
  4H   3s         0.373939 -0.122608 -0.149817 -0.247817  0.093497 -0.101434
  4H   1pz        0.012841  0.007706  0.009427  0.001248  0.010655 -0.011537
  4H   1px        0.007995  0.001984  0.049410  0.001387  0.030100 -0.006016
  4H   1py        0.013851  0.056606  0.042069  0.002440  0.021543 -0.038671
  5Cl  1s         0.001640 -0.000003  0.000001 -0.002604 -0.000001 -0.000001
  5Cl  2s         0.005035 -0.000009  0.000004 -0.007232 -0.000002 -0.000003
  5Cl  3s        -0.012402  0.000018 -0.000008  0.011694  0.000004  0.000005
  5Cl  4s        -0.012216  0.000034 -0.000016  0.045252  0.000011  0.000017
  5Cl  5s        -0.010199 -0.000056  0.000031 -0.130665 -0.000025 -0.000041
  5Cl  6s         0.539886 -0.000192  0.000065 -0.099427 -0.000096 -0.000107
  5Cl  1pz        0.050499 -0.000028  0.000002  0.165561  0.000069  0.000079
  5Cl  1px       -0.000004 -0.036608  0.096831  0.000067 -0.153254 -0.034596
  5Cl  1py        0.000004  0.096848  0.036607 -0.000044 -0.034597  0.153244
  5Cl  2pz        0.012296 -0.000004 -0.000001  0.029795  0.000011  0.000013
  5Cl  2px       -0.000000 -0.006743  0.017837  0.000011 -0.022993 -0.005190
  5Cl  2py        0.000001  0.017839  0.006743 -0.000007 -0.005191  0.022991
  5Cl  3pz       -0.041976 -0.000000  0.000007 -0.062839 -0.000015 -0.000022
  5Cl  3px       -0.000000  0.015161 -0.040104 -0.000014  0.024001  0.005418
  5Cl  3py       -0.000002 -0.040107 -0.015161  0.000007  0.005418 -0.023997
  5Cl  4pz       -0.085352  0.000180 -0.000048 -0.786586 -0.000376 -0.000413
  5Cl  4px        0.000026  0.150392 -0.397790 -0.000366  0.857004  0.193464
  5Cl  4py       -0.000016 -0.397881 -0.150391  0.000247  0.193470 -0.856962
  5Cl  5pz        0.102019 -0.000444  0.000151  1.068600  0.000478  0.000527
  5Cl  5px       -0.000002 -0.147487  0.390095  0.000504 -1.173765 -0.264975
  5Cl  5py        0.000002  0.390206  0.147485 -0.000338 -0.264981  1.173729
  5Cl  1dz2       0.064876  0.000010 -0.000007 -0.027778 -0.000019 -0.000017
  5Cl  1dxz       0.000018 -0.009157  0.024225 -0.000022  0.032197  0.007270
  5Cl  1dyz      -0.000006  0.024225  0.009158  0.000014  0.007269 -0.032206
  5Cl  1dx2y2     0.000000 -0.000301  0.000799 -0.000001  0.000147  0.000032
  5Cl  1dxy      -0.000000 -0.000790 -0.000300 -0.000001 -0.000032  0.000136
  5Cl  2dz2       0.202791  0.000016 -0.000032 -0.012443 -0.000061 -0.000040
  5Cl  2dxz       0.000048 -0.052971  0.140124 -0.000062  0.146192  0.033014
  5Cl  2dyz      -0.000013  0.140131  0.052973  0.000050  0.033005 -0.146249
  5Cl  2dx2y2    -0.000000 -0.002964  0.007853 -0.000007  0.002847  0.000639
  5Cl  2dxy      -0.000001 -0.007800 -0.002956 -0.000005 -0.000637  0.002799
                     24        25        26        27        28        29   
                   0.53137   0.61841   0.61843   0.68895   0.68895   0.74276
                   0.00000   0.00000   0.00000   0.00000   0.00000   0.00000
                  --------  --------  --------  --------  --------  --------
  0C   1s        -0.034687 -0.000004 -0.000007  0.000001 -0.000000 -0.000033
  0C   2s        -0.071218 -0.000007 -0.000011  0.000001 -0.000001 -0.000065
  0C   1pz       -0.172953  0.000008  0.000020 -0.000002  0.000005  0.000068
  0C   1px       -0.000004  0.039841  0.006214 -0.035982  0.008516  0.096018
  0C   1py       -0.000012  0.006211 -0.039845 -0.008512 -0.035978 -0.202978
  0C   3s         0.371716 -0.000010 -0.000020  0.000010 -0.000007  0.000306
  0C   2pz       -0.576075  0.000020  0.000075 -0.000016  0.000026  0.000314
  0C   2px        0.000001  0.086406  0.013482 -0.146487  0.034670  0.307923
  0C   2py       -0.000040  0.013469 -0.086445 -0.034655 -0.146480 -0.650937
  0C   4s         0.119856  0.000295  0.000494 -0.000104  0.000076  0.000151
  0C   3pz        1.382298 -0.000043 -0.000191  0.000043 -0.000051 -0.000854
  0C   3px       -0.000071  0.117533  0.018337  0.175605 -0.041565 -0.843316
  0C   3py        0.000122  0.018334 -0.117659  0.041529  0.175552  1.782738
  0C   1dz2       0.026023  0.000000 -0.000003  0.000001 -0.000001  0.000001
  0C   1dxz       0.000001 -0.011204 -0.001747  0.001190 -0.000283 -0.002517
  0C   1dyz       0.000004 -0.001747  0.011205  0.000281  0.001191  0.005320
  0C   1dx2y2    -0.000000  0.003703  0.000578 -0.003317  0.000785  0.003313
  0C   1dxy       0.000000 -0.000578  0.003705  0.000785  0.003317  0.007002
  0C   2dz2      -0.234044  0.000010  0.000121  0.000005 -0.000010  0.000007
  0C   2dxz      -0.000063  0.398729  0.062154  0.043593 -0.010291 -0.244488
  0C   2dyz      -0.000013  0.062190 -0.398737  0.010325  0.043531  0.516886
  0C   2dx2y2    -0.000003  0.318656  0.049753  0.001551 -0.000357  0.145549
  0C   2dxy       0.000016 -0.049714  0.318630 -0.000376 -0.001546  0.307572
  1H   1s        -0.026860  0.025888  0.004031 -0.012120  0.002869  0.028163
  1H   2s        -0.459989  0.248706  0.038634 -0.097565  0.023079 -0.046601
  1H   3s        -0.069638 -0.244987 -0.038175  0.183725 -0.043497 -0.700403
  1H   1pz       -0.020535  0.016674  0.002606 -0.005096  0.001208  0.018987
  1H   1px       -0.007143 -0.014953 -0.002331  0.005815 -0.001378 -0.047818
  1H   1py       -0.000001  0.002583 -0.016562 -0.002825 -0.011936 -0.008905
  2H   1s        -0.026867 -0.009456 -0.024462  0.003577 -0.011931 -0.065718
  2H   2s        -0.459912 -0.090919 -0.235214  0.028832 -0.096141  0.107463
  2H   3s        -0.069553  0.089399  0.231280 -0.054232  0.180879  1.633441
  2H   1pz       -0.020527 -0.006084 -0.015738  0.001503 -0.005013 -0.044254
  2H   1px        0.003568  0.010803 -0.012287 -0.009317 -0.005908 -0.056455
  2H   1py       -0.006183  0.012537  0.009196 -0.007358  0.003190  0.096189
  3H   1s        -0.119193  0.000005  0.000007  0.000001 -0.000000 -0.000012
  3H   2s         0.284639 -0.000171 -0.000299  0.000030 -0.000022 -0.000283
  3H   3s         1.058473  0.000025 -0.000115  0.000049 -0.000041 -0.000652
  3H   1pz        0.078534  0.000012  0.000005  0.000002 -0.000001 -0.000015
  3H   1px        0.000001 -0.082987 -0.012940 -0.004286  0.001020  0.021754
  3H   1py        0.000014 -0.012938  0.082985 -0.001010 -0.004294 -0.045985
  4H   1s        -0.026860 -0.016451  0.020402  0.008543  0.009061  0.037479
  4H   2s        -0.459921 -0.158139  0.195989  0.068848  0.072975 -0.061884
  4H   3s        -0.069601  0.155569 -0.192989 -0.129520 -0.137355 -0.932005
  4H   1pz       -0.020525 -0.010588  0.013146  0.003589  0.003809  0.025260
  4H   1px        0.003571  0.006546  0.014997 -0.005680  0.009459  0.038834
  4H   1py        0.006184 -0.014746  0.004939  0.008008 -0.000447  0.051054
  5Cl  1s         0.000173 -0.000002 -0.000002 -0.000000  0.000000  0.000002
  5Cl  2s         0.000565 -0.000004 -0.000005 -0.000001  0.000000  0.000007
  5Cl  3s        -0.001623  0.000006  0.000007  0.000001 -0.000001 -0.000012
  5Cl  4s        -0.000758  0.000030  0.000041  0.000004 -0.000002 -0.000037
  5Cl  5s         0.027825 -0.000100 -0.000146 -0.000008  0.000005  0.000089
  5Cl  6s        -0.323270  0.000100  0.000199 -0.000013  0.000011  0.000150
  5Cl  1pz       -0.110440  0.000005  0.000000  0.000001 -0.000001 -0.000017
  5Cl  1px       -0.000021 -0.015033 -0.002345  0.002575 -0.000609 -0.007706
  5Cl  1py        0.000007 -0.002344  0.015039  0.000610  0.002575  0.016291
  5Cl  2pz       -0.024895  0.000002  0.000003  0.000000 -0.000000 -0.000002
  5Cl  2px       -0.000005 -0.004147 -0.000647  0.000492 -0.000116 -0.001545
  5Cl  2py        0.000001 -0.000646  0.004147  0.000117  0.000492  0.003266
  5Cl  3pz        0.083484 -0.000016 -0.000021  0.000001 -0.000000 -0.000000
  5Cl  3px        0.000015  0.017684  0.002757 -0.001305  0.000309  0.004505
  5Cl  3py       -0.000003  0.002757 -0.017684 -0.000309 -0.001306 -0.009522
  5Cl  4pz        0.290123  0.000041  0.000098 -0.000011  0.000009  0.000132
  5Cl  4px        0.000060  0.008093  0.001271 -0.011219  0.002651  0.032151
  5Cl  4py       -0.000025  0.001260 -0.008138 -0.002657 -0.011214 -0.067971
  5Cl  5pz       -0.480667 -0.000011 -0.000027  0.000001 -0.000002 -0.000050
  5Cl  5px       -0.000116  0.023748  0.003689  0.015958 -0.003772 -0.044400
  5Cl  5py        0.000066  0.003705 -0.023677  0.003779  0.015951  0.093859
  5Cl  1dz2      -0.089218  0.000036  0.000016 -0.000004  0.000002  0.000006
  5Cl  1dxz      -0.000027 -0.131769 -0.020545  0.007542 -0.001793 -0.008677
  5Cl  1dyz       0.000004 -0.020546  0.131767  0.001793  0.007610  0.018344
  5Cl  1dx2y2    -0.000001  0.005610  0.000885  0.173969 -0.041194  0.012747
  5Cl  1dxy      -0.000000 -0.000875  0.005667 -0.041194 -0.173967  0.026936
  5Cl  2dz2      -0.453075  0.000220  0.000144 -0.000023  0.000013  0.000050
  5Cl  2dxz      -0.000144 -0.675714 -0.105354  0.035188 -0.008369 -0.033026
  5Cl  2dyz       0.000031 -0.105360  0.675691  0.008365  0.035531  0.069815
  5Cl  2dx2y2    -0.000006  0.033521  0.005278  0.867490 -0.205411  0.060396
  5Cl  2dxy      -0.000002 -0.005232  0.033813 -0.205412 -0.867480  0.127624
                     30        31        32        33        34        35   
                   0.74277   0.75928   0.80417   0.80417   0.88603   0.99677
                   0.00000   0.00000   0.00000   0.00000   0.00000   0.00000
                  --------  --------  --------  --------  --------  --------
  0C   1s         0.000040  0.083915  0.000035  0.000042 -0.034141 -0.067987
  0C   2s         0.000077  0.166124  0.000072  0.000086 -0.076743 -0.148110
  0C   1pz       -0.000050 -0.108055 -0.000028 -0.000033  0.084181 -0.123966
  0C   1px       -0.202991  0.000203 -0.036650 -0.109734 -0.000002 -0.000007
  0C   1py       -0.096017 -0.000070  0.109761 -0.036650  0.000010 -0.000009
  0C   3s        -0.000345 -0.852085 -0.000470 -0.000559  0.965662  1.387677
  0C   2pz       -0.000275 -0.568788 -0.000141 -0.000150  0.103622 -0.575850
  0C   2px       -0.650973  0.000674 -0.133895 -0.400935 -0.000029 -0.000012
  0C   2py       -0.307919 -0.000241  0.400988 -0.133909  0.000023 -0.000049
  0C   4s        -0.000284  0.036893  0.000638  0.000804 -4.167468 -4.176580
  0C   3pz        0.000808  1.595507  0.000478  0.000532 -0.561309  1.233203
  0C   3px        1.782883 -0.001664  0.353394  1.057955  0.000055  0.000214
  0C   3py        0.843329  0.000694 -1.058389  0.353361 -0.000029 -0.000005
  0C   1dz2      -0.000001 -0.005612 -0.000004 -0.000004  0.014197 -0.001161
  0C   1dxz       0.005320 -0.000001 -0.000775 -0.002320  0.000000 -0.000001
  0C   1dyz       0.002516  0.000001  0.002320 -0.000775  0.000002  0.000000
  0C   1dx2y2    -0.007001  0.000004  0.000778  0.002326  0.000001  0.000000
  0C   1dxy       0.003314  0.000001  0.002328 -0.000777 -0.000000 -0.000000
  0C   2dz2      -0.000116 -0.139349 -0.000116 -0.000070  0.699378  0.236493
  0C   2dxz       0.516770 -0.000111 -0.194070 -0.581292 -0.000149 -0.000087
  0C   2dyz       0.244462 -0.000060  0.581149 -0.194128  0.000091  0.000064
  0C   2dx2y2    -0.307712  0.000390 -0.118374 -0.354050  0.000024 -0.000061
  0C   2dxy       0.145612  0.000180 -0.354224  0.118274  0.000017 -0.000060
  1H   1s        -0.059554  0.056449 -0.001705 -0.005130 -0.007701  0.016439
  1H   2s         0.098232  0.738213  0.023190  0.069050  1.095779  0.728444
  1H   3s         1.480881 -0.855685  0.223667  0.670064  0.596656  0.076239
  1H   1pz       -0.040130  0.000018  0.010823  0.032399 -0.007671 -0.035693
  1H   1px        0.101109 -0.073420  0.016113  0.048284  0.110763  0.100874
  1H   1py       -0.004222 -0.000001  0.009218 -0.003082 -0.000006 -0.000008
  2H   1s         0.005409  0.056368  0.005339  0.001105 -0.007710  0.016443
  2H   2s        -0.008408  0.738314 -0.071269 -0.014402  1.095853  0.728247
  2H   3s        -0.134165 -0.853202 -0.693216 -0.141668  0.596655  0.076166
  2H   1pz        0.003622  0.000008 -0.033450 -0.006819 -0.007691 -0.035714
  2H   1px       -0.003924  0.036631  0.026677 -0.003142 -0.055381 -0.050419
  2H   1py       -0.012847 -0.063435 -0.042329 -0.013628  0.095934  0.087339
  3H   1s         0.000015  0.029820  0.000004  0.000002  0.106245 -0.068605
  3H   2s         0.000410  0.623921  0.000194  0.000197  0.718673 -0.421925
  3H   3s         0.000784  1.519450  0.000372  0.000495 -0.649753  2.504253
  3H   1pz        0.000021  0.012234 -0.000025 -0.000006  0.004433  0.059784
  3H   1px       -0.045990  0.000029 -0.002338 -0.006997  0.000010 -0.000010
  3H   1py       -0.021752  0.000005  0.007007 -0.002339 -0.000006  0.000021
  4H   1s         0.054231  0.056395 -0.003587  0.004086 -0.007705  0.016439
  4H   2s        -0.088543  0.738222  0.048422 -0.054289  1.095807  0.728373
  4H   3s        -1.347913 -0.853980  0.468571 -0.529627  0.596652  0.076227
  4H   1pz        0.036499  0.000005  0.022646 -0.025560 -0.007679 -0.035690
  4H   1px        0.041165  0.036670 -0.023185  0.013513 -0.055390 -0.050434
  4H   1py        0.082511  0.063479 -0.025604  0.036301 -0.095928 -0.087351
  5Cl  1s        -0.000002 -0.003875  0.000002  0.000001 -0.011141  0.004266
  5Cl  2s        -0.000007 -0.011228  0.000004  0.000002 -0.030803  0.011443
  5Cl  3s         0.000013  0.022378 -0.000005 -0.000001  0.048485 -0.014782
  5Cl  4s         0.000035  0.053119 -0.000034 -0.000019  0.207147 -0.092647
  5Cl  5s        -0.000070 -0.089411  0.000136  0.000089 -0.667585  0.355062
  5Cl  6s        -0.000231 -0.474373 -0.000261 -0.000250  0.621776 -0.938192
  5Cl  1pz        0.000022  0.047223  0.000002  0.000009  0.065060 -0.032381
  5Cl  1px        0.016292  0.000009 -0.007561 -0.022642  0.000014 -0.000009
  5Cl  1py        0.007707 -0.000003  0.022640 -0.007561 -0.000007  0.000006
  5Cl  2pz        0.000003  0.006273 -0.000002 -0.000000  0.015656 -0.012222
  5Cl  2px        0.003267  0.000001 -0.000957 -0.002867  0.000004 -0.000002
  5Cl  2py        0.001545 -0.000000  0.002866 -0.000957 -0.000002  0.000001
  5Cl  3pz        0.000003  0.001733  0.000018  0.000012 -0.062455  0.068525
  5Cl  3px       -0.009525  0.000003  0.000173  0.000519 -0.000018  0.000009
  5Cl  3py       -0.004505 -0.000000 -0.000518  0.000173  0.000008 -0.000002
  5Cl  4pz       -0.000181 -0.360961 -0.000100 -0.000125 -0.165451 -0.144948
  5Cl  4px       -0.067973 -0.000081  0.053256  0.159475 -0.000014  0.000013
  5Cl  4py       -0.032155  0.000021 -0.159467  0.053255  0.000013 -0.000031
  5Cl  5pz        0.000052  0.133429  0.000008  0.000056  0.111359  0.137858
  5Cl  5px        0.093879  0.000009 -0.092573 -0.277202 -0.000013 -0.000084
  5Cl  5py        0.044406  0.000040  0.277201 -0.092570 -0.000007  0.000107
  5Cl  1dz2      -0.000011  0.001947  0.000021  0.000042 -0.099271  0.153721
  5Cl  1dxz       0.018341  0.000023 -0.038902 -0.116489 -0.000060  0.000023
  5Cl  1dyz       0.008676  0.000006  0.116487 -0.038901  0.000021  0.000008
  5Cl  1dx2y2    -0.026936  0.000016 -0.000450 -0.001348 -0.000004 -0.000001
  5Cl  1dxy       0.012747  0.000004 -0.001313  0.000439 -0.000002 -0.000000
  5Cl  2dz2      -0.000096 -0.081647  0.000029  0.000135 -0.500203  0.646152
  5Cl  2dxz       0.069814  0.000050 -0.158799 -0.475506 -0.000270  0.000117
  5Cl  2dyz       0.033022  0.000060  0.475509 -0.158793  0.000101  0.000016
  5Cl  2dx2y2    -0.127627  0.000077 -0.002712 -0.008119 -0.000013 -0.000003
  5Cl  2dxy       0.060392  0.000019 -0.007980  0.002667 -0.000007 -0.000001
                     36        37        38        39        40        41   
                   1.15960   1.15961   1.19798   1.42612   1.64494   1.70588
                   0.00000   0.00000   0.00000   0.00000   0.00000   0.00000
                  --------  --------  --------  --------  --------  --------
  0C   1s         0.000006  0.000005 -0.019245 -0.016541  0.000000  0.000001
  0C   2s         0.000015  0.000011 -0.049440 -0.054280  0.000000 -0.000003
  0C   1pz        0.000004 -0.000003  0.023089  0.098642 -0.000000  0.000032
  0C   1px        0.011988  0.054912  0.000022  0.000005  0.000001 -0.002023
  0C   1py       -0.054911  0.011990 -0.000008  0.000011 -0.000002 -0.029597
  0C   3s        -0.000096 -0.000054  0.378585  0.843343 -0.000000  0.000098
  0C   2pz        0.000034 -0.000038  0.125011  0.030000  0.000000  0.000008
  0C   2px        0.190016  0.870293  0.000370 -0.000018  0.000002  0.001745
  0C   2py       -0.870302  0.190029 -0.000180  0.000035 -0.000013  0.025554
  0C   4s        -0.000369 -0.000424  0.682736 -2.873521  0.000000 -0.000386
  0C   3pz        0.000079 -0.000084  0.635831  2.364940 -0.000000  0.000383
  0C   3px        0.487226  2.231580  0.001185 -0.000241  0.000025 -0.023294
  0C   3py       -2.231652  0.487286 -0.000624  0.000628 -0.000051 -0.340333
  0C   1dz2       0.000001 -0.000000  0.003219  0.023288 -0.000000  0.000007
  0C   1dxz       0.000090  0.000408 -0.000003  0.000014  0.000000  0.000444
  0C   1dyz      -0.000411  0.000089  0.000005 -0.000008 -0.000000  0.006471
  0C   1dx2y2    -0.003144 -0.014391 -0.000008  0.000002 -0.000001  0.000847
  0C   1dxy      -0.014388  0.003145 -0.000003  0.000004 -0.000002 -0.012425
  0C   2dz2       0.000446  0.000401 -1.388035 -1.378217  0.000000 -0.000230
  0C   2dxz       0.162379  0.743013  0.000231 -0.000139  0.000007 -0.012150
  0C   2dyz      -0.743166  0.162117 -0.000322 -0.000167 -0.000018 -0.177802
  0C   2dx2y2    -0.419667 -1.920895 -0.000912  0.000192 -0.000014  0.013828
  0C   2dxy      -1.920834  0.419754 -0.000501  0.000231 -0.000039 -0.202300
  1H   1s        -0.014512 -0.066411  0.044416  0.066304 -0.000002  0.004761
  1H   2s         0.674439  3.087338 -0.786840 -0.262634  0.000026 -0.025110
  1H   3s         0.021671  0.099443  0.166328 -0.204214  0.000003 -0.004339
  1H   1pz       -0.006546 -0.029931  0.049129  0.049024 -0.000044 -0.039267
  1H   1px        0.049408  0.226206 -0.021498  0.019463  0.000027 -0.008385
  1H   1py       -0.013636  0.002962  0.000000  0.000014  0.596050 -0.175978
  2H   1s         0.064744  0.020632  0.044473  0.066310  0.000008  0.057765
  2H   2s        -3.010344 -0.959391 -0.789736 -0.261843 -0.000071 -0.304749
  2H   3s        -0.097150 -0.030973  0.166171 -0.204075 -0.000003 -0.052236
  2H   1pz        0.029188  0.009294  0.049105  0.049182  0.000007 -0.478411
  2H   1px        0.106615  0.046654  0.010862 -0.009761 -0.516213 -0.034240
  2H   1py       -0.193156 -0.054248 -0.018800  0.016917 -0.297998 -0.137535
  3H   1s        -0.000005 -0.000009  0.018129  0.083326 -0.000000  0.000061
  3H   2s        -0.000154 -0.000200  1.157233  2.507575 -0.000000  0.000336
  3H   3s         0.000586  0.000660 -1.556319  3.991555 -0.000000  0.000666
  3H   1pz       -0.000065 -0.000074  0.219174  0.111427 -0.000000  0.000029
  3H   1px        0.001323  0.006034  0.000034  0.000049  0.000004  0.049698
  3H   1py       -0.006028  0.001311 -0.000009 -0.000045  0.000001  0.726526
  4H   1s        -0.050263  0.045749  0.044452  0.066318 -0.000006 -0.062477
  4H   2s         2.336649 -2.127168 -0.788338 -0.262504  0.000045  0.329664
  4H   3s         0.075312 -0.068644  0.166228 -0.204184 -0.000000  0.056455
  4H   1pz       -0.022649  0.020599  0.049115  0.049049  0.000037  0.517815
  4H   1px       -0.077475  0.086869  0.010816 -0.009744  0.516173  0.011980
  4H   1py       -0.152959  0.129832  0.018715 -0.016855 -0.298048 -0.134311
  5Cl  1s         0.000009  0.000010 -0.024839  0.021808 -0.000000  0.000003
  5Cl  2s         0.000025  0.000027 -0.068346  0.058751 -0.000000  0.000007
  5Cl  3s        -0.000037 -0.000040  0.103906 -0.077285  0.000000 -0.000009
  5Cl  4s        -0.000182 -0.000195  0.494143 -0.491824  0.000000 -0.000061
  5Cl  5s         0.000671  0.000717 -1.814476  2.135249 -0.000000  0.000293
  5Cl  6s        -0.000795 -0.000849  2.095207 -3.850166  0.000000 -0.000587
  5Cl  1pz       -0.000010 -0.000013  0.034127  0.163463 -0.000000  0.000063
  5Cl  1px       -0.000523 -0.002388  0.000011  0.000039  0.000000  0.005441
  5Cl  1py        0.002397 -0.000521 -0.000010 -0.000022  0.000000  0.079531
  5Cl  2pz       -0.000002 -0.000003  0.006600  0.041493 -0.000000  0.000019
  5Cl  2px        0.000047  0.000218  0.000003  0.000011  0.000000  0.001719
  5Cl  2py       -0.000215  0.000048 -0.000003 -0.000007  0.000000  0.025126
  5Cl  3pz        0.000010  0.000015 -0.024683 -0.192886  0.000000 -0.000107
  5Cl  3px       -0.001059 -0.004871 -0.000016 -0.000054 -0.000001 -0.010313
  5Cl  3py        0.004853 -0.001064  0.000016  0.000036 -0.000001 -0.150759
  5Cl  4pz        0.000050  0.000054 -0.221459 -0.433608  0.000000 -0.000025
  5Cl  4px        0.011398  0.052224 -0.000020 -0.000060  0.000001  0.005417
  5Cl  4py       -0.052210  0.011404 -0.000000  0.000003 -0.000001  0.079202
  5Cl  5pz       -0.000282 -0.000282  0.772947 -1.130975  0.000000 -0.000189
  5Cl  5px       -0.037474 -0.171661  0.000074 -0.000336 -0.000003 -0.006626
  5Cl  5py        0.171638 -0.037483 -0.000005  0.000210  0.000004 -0.096918
  5Cl  1dz2      -0.000019 -0.000010  0.042171 -0.075099  0.000000 -0.000030
  5Cl  1dxz      -0.009320 -0.042715 -0.000014 -0.000066 -0.000001 -0.007790
  5Cl  1dyz       0.042686 -0.009326  0.000020  0.000057  0.000001 -0.113919
  5Cl  1dx2y2     0.002629  0.012026  0.000006 -0.000000 -0.000000 -0.000178
  5Cl  1dxy       0.012041 -0.002630  0.000004 -0.000001  0.000001  0.002404
  5Cl  2dz2      -0.000082 -0.000051  0.123900 -0.597497  0.000000 -0.000125
  5Cl  2dxz      -0.030195 -0.138354 -0.000041 -0.000296 -0.000002 -0.013795
  5Cl  2dyz       0.138290 -0.030208  0.000057  0.000185  0.000002 -0.201692
  5Cl  2dx2y2     0.005702  0.026083  0.000013 -0.000000 -0.000000 -0.000105
  5Cl  2dxy       0.026129 -0.005706  0.000007 -0.000001  0.000001  0.001177
                     42        43        44        45        46        47   
                   1.70591   1.95531   2.08719   2.08726   2.38207   2.38208
                   0.00000   0.00000   0.00000   0.00000   0.00000   0.00000
                  --------  --------  --------  --------  --------  --------
  0C   1s         0.000000 -0.000957  0.000001 -0.000002  0.000011  0.000001
  0C   2s        -0.000001  0.001689  0.000001 -0.000003  0.000015  0.000003
  0C   1pz        0.000023  0.145932  0.000041 -0.000046  0.000130 -0.000001
  0C   1px        0.029595 -0.000004  0.148254  0.016376 -0.310448 -0.108160
  0C   1py       -0.002026  0.000013 -0.016375  0.148277  0.108152 -0.310431
  0C   3s         0.000076  0.060566  0.000054 -0.000005  0.000015 -0.000017
  0C   2pz       -0.000004 -0.115125 -0.000038  0.000040  0.000022  0.000011
  0C   2px       -0.025521  0.000000 -0.593389 -0.065551 -0.073468 -0.025596
  0C   2py        0.001748 -0.000027  0.065539 -0.593518  0.025586 -0.073441
  0C   4s        -0.000470 -0.694036 -0.000337  0.000021 -0.000139 -0.000003
  0C   3pz        0.000294  0.708155  0.000208 -0.000124  0.000336 -0.000002
  0C   3px        0.340443 -0.000015  0.167588  0.018497 -0.369684 -0.128792
  0C   3py       -0.023274  0.000077 -0.018509  0.167476  0.128783 -0.369635
  0C   1dz2       0.000006 -0.113671 -0.000007 -0.000001  0.000029 -0.000023
  0C   1dxz      -0.006472 -0.000004  0.014768  0.001629  0.106552  0.037113
  0C   1dyz       0.000442 -0.000017 -0.001632  0.014755 -0.037130  0.106550
  0C   1dx2y2    -0.012430  0.000003 -0.027578 -0.003040 -0.132086 -0.046007
[...]
      8       0.000000   0.000000   0.000000   0.000000   0.000000   0.000000
      9       0.000000   0.000000   0.000000   0.000000   0.000000   0.000000
     10       0.000000   0.000000   0.000000   0.000000   0.000000   0.000000
     11       0.000000   0.000000   0.000000   0.000000   0.000000   0.000000
     12       0.000000   0.000000   0.000000   0.000000   0.000000   0.000000
     13       0.000000   0.000000   0.000000   0.000000   0.000000   0.000000
     14       0.000000   0.000000   0.000000   0.000000   0.000000   0.000000
     15       0.000000   0.000000   0.000000   0.000000   0.000000   0.000000
     16       0.000000   0.000000   0.000000   0.000000   0.000000   0.000000
     17       0.000000   0.000000   0.000000   0.000000   0.000000   0.000000
                  6          7          8          9         10         11    
      0      -0.000012   0.013319   0.030531  -0.000029  -0.054272  -0.043855
      1       0.000000   0.030533  -0.013318  -0.000041  -0.043853   0.054270
      2      -0.128042  -0.000056   0.000022  -0.317208   0.000010  -0.000000
      3       0.035356  -0.038912  -0.089195  -0.029504   0.026266   0.021213
      4      -0.000005  -0.102494   0.044684   0.000053   0.038028  -0.047081
      5       0.116213  -0.256627  -0.588174  -0.499361   0.357725   0.289028
      6      -0.017658  -0.049048  -0.096549   0.014680   0.049183   0.024786
      7       0.030624  -0.094985   0.034575  -0.025476   0.034451  -0.024136
      8       0.116228  -0.381196   0.516329  -0.499032   0.071525  -0.454364
      9       0.000093   0.235816   0.540601  -0.000028   0.636967   0.514703
     10       0.000010   0.540599  -0.235825  -0.000206   0.514709  -0.636963
     11       0.969174  -0.000095  -0.000023  -0.350813  -0.000069  -0.000033
     12      -0.017661  -0.037423  -0.101684   0.014675   0.034543   0.042880
     13      -0.030630  -0.089964   0.046129   0.025564   0.016377  -0.038744
     14       0.116224   0.637620   0.071967  -0.499700  -0.429161   0.165197
     15       0.000000  -0.007652  -0.017542   0.000015  -0.002851  -0.002304
     16      -0.000000  -0.017542   0.007652   0.000016  -0.002304   0.002851
     17       0.005910   0.000027  -0.000010   0.160034  -0.000004   0.000005
                 12         13         14         15         16         17    
      0      -0.000012   0.011087   0.082883  -0.000001  -0.000290  -0.098087
      1       0.000005  -0.082887   0.011087   0.000000  -0.098086   0.000290
      2      -0.139579  -0.000003  -0.000006  -0.025976  -0.000002   0.000008
      3       0.122079   0.014003   0.104344  -0.567588   0.002311   0.795597
      4      -0.000019   0.781546  -0.104588   0.000027  -0.011999  -0.000002
      5       0.503666   0.022532   0.168278   0.104312  -0.000478  -0.164489
      6      -0.060971   0.308640  -0.611428   0.283774  -0.349143   0.190923
      7       0.105669   0.065796  -0.399242  -0.491548   0.592723  -0.351453
      8       0.503667  -0.157020  -0.064595   0.104221  -0.142112   0.082602
      9      -0.000036   0.003028   0.022650  -0.000001  -0.000027  -0.008882
     10      -0.000078  -0.022607   0.003025  -0.000001  -0.008885   0.000026
     11      -0.417759   0.000002   0.000019  -0.016366  -0.000000   0.000009
     12      -0.060980  -0.458520  -0.508733   0.283825   0.350305   0.188927
     13      -0.105685   0.168490   0.367953   0.491517   0.594712   0.347982
     14       0.503684   0.134520  -0.103594   0.104240   0.142611   0.081789
     15       0.000002   0.000021   0.000158   0.000000   0.000000   0.000063
     16       0.000002  -0.000158   0.000021   0.000000   0.000063  -0.000000
     17       0.016204   0.000000  -0.000001   0.000373  -0.000000  -0.000000


-----------
IR SPECTRUM
-----------

 Mode    freq (cm**-1)   T**2         TX         TY         TZ
-------------------------------------------------------------------
   7:       380.67    0.439882  (  0.265074   0.607961  -0.001004)
   8:       380.68    0.439658  (  0.607711  -0.265227  -0.000004)
   9:       517.13    7.814495  ( -0.000254   0.000064  -2.795442)
  10:       970.50   10.448402  (  2.514252   2.031486  -0.000282)
  11:       970.51   10.447523  (  2.031620  -2.513970  -0.000314)
  12:      1230.47    4.435548  ( -0.000301  -0.000551  -2.106074)
  13:      1465.23    4.888395  ( -0.293622   2.191388   0.000230)
  14:      1465.24    4.903045  ( -2.194799  -0.293080   0.002210)
  15:      3128.74    0.263214  (  0.000509  -0.000056   0.513043)
  16:      3294.67    0.002616  (  0.000116   0.051144   0.000022)
  17:      3294.69    0.002485  (  0.049712  -0.000182   0.003723)

The first frequency considered to be a vibration is 7
The total number of vibrations considered is 11


--------------------------
THERMOCHEMISTRY AT 298.15K
--------------------------

Temperature         ... 298.15 K
Pressure            ... 1.00 atm
Total Mass          ... 51.50 AMU

Throughout the following assumptions are being made:
  (1) The electronic state is orbitally nondegenerate
      but the spin degeneracy is treated
  (2) There are no thermally accessible electronically excited states
  (3) Hindered rotations indicated by low frequency modes are not
      treated as such but are treated as vibrations and this may
      cause some error
  (4) All equations used are the standard statistical mechanics
      equations for an ideal gas
  (5) All vibrations are strictly harmonic

freq.     380.67  E(vib)   ...       0.21 
freq.     380.68  E(vib)   ...       0.21 
freq.     517.13  E(vib)   ...       0.13 
freq.     970.50  E(vib)   ...       0.03 
freq.     970.51  E(vib)   ...       0.03 
freq.    1230.47  E(vib)   ...       0.01 
freq.    1465.23  E(vib)   ...       0.00 
freq.    1465.24  E(vib)   ...       0.00 
freq.    3128.74  E(vib)   ...       0.00 
freq.    3294.67  E(vib)   ...       0.00 
freq.    3294.69  E(vib)   ...       0.00 

------------
INNER ENERGY
------------

The inner energy is: U= E(el) + E(ZPE) + E(vib) + E(rot) + E(trans)
    E(el)   - is the total energy from the electronic structure calculation
              = E(kin-el) + E(nuc-el) + E(el-el) + E(nuc-nuc)
    E(ZPE)  - the the zero temperature vibrational energy from the frequency calculation
    E(vib)  - the the finite temperature correction to E(ZPE) due to population
              of excited vibrational states
    E(rot)  - is the rotational thermal energy
    E(trans)- is the translational thermal energy

Summary of contributions to the inner energy U:
Electronic energy                ...   -500.05511990 Eh
Zero point energy                ...      0.03895332 Eh      24.44 kcal/mol
Thermal vibrational correction   ...      0.00097782 Eh       0.61 kcal/mol
Thermal rotational correction    ...      0.00141627 Eh       0.89 kcal/mol
Thermal translational correction ...      0.00141627 Eh       0.89 kcal/mol
-----------------------------------------------------------------------
Total thermal energy                   -500.01235621 Eh


Summary of corrections to the electronic energy:
(perhaps to be used in another calculation)
Total thermal correction                  0.00381037 Eh       2.39 kcal/mol
Non-thermal (ZPE) correction              0.03895332 Eh      24.44 kcal/mol
-----------------------------------------------------------------------
Total correction                          0.04276368 Eh      26.83 kcal/mol


--------
ENTHALPY
--------

The enthalpy is H = U + kB*T
                kB is Boltzmann's constant
Total free energy                 ...   -500.01235621 Eh 
Thermal Enthalpy correction       ...      0.00094421 Eh       0.59 kcal/mol
-----------------------------------------------------------------------
Total Enthalpy                    ...   -500.01141200 Eh


Note: Only C1 symmetry has been detected, increase convergence thresholds 
      if your molecule has a higher symmetry. Symmetry factor of 1.0 is   
      used for the rotational entropy correction. 
 

Note: Rotational entropy computed according to Herzberg 
Infrared and Raman Spectra, Chapter V,1, Van Nostrand Reinhold, 1945 
Point Group:  C1, Symmetry Number:   1  
Rotational constants in cm-1:     4.955853     0.189547     0.189547 

Vibrational entropy computed according to the QRRHO of S. Grimme
Chem.Eur.J. 2012 18 9955


-------
ENTROPY
-------

The entropy contributions are T*S = T*(S(el)+S(vib)+S(rot)+S(trans))
     S(el)   - electronic entropy
     S(vib)  - vibrational entropy
     S(rot)  - rotational entropy
     S(trans)- translational entropy
The entropies will be listed as mutliplied by the temperature to get
units of energy

Electronic entropy                ...      0.00065446 Eh      0.41 kcal/mol
Vibrational entropy               ...      0.00141104 Eh      0.89 kcal/mol
Rotational entropy                ...      0.01032548 Eh      6.48 kcal/mol
Translational entropy             ...      0.01793131 Eh     11.25 kcal/mol
-----------------------------------------------------------------------
Final entropy term                ...      0.03032228 Eh     19.03 kcal/mol

In case the symmetry of your molecule has not been determined correctly
or in case you have a reason to use a different symmetry number we print 
out the resulting rotational entropy values for sn=1,12 :
 --------------------------------------------------------
|  sn= 1 | S(rot)=       0.01032548 Eh      6.48 kcal/mol|
|  sn= 2 | S(rot)=       0.00967102 Eh      6.07 kcal/mol|
|  sn= 3 | S(rot)=       0.00928819 Eh      5.83 kcal/mol|
|  sn= 4 | S(rot)=       0.00901657 Eh      5.66 kcal/mol|
|  sn= 5 | S(rot)=       0.00880588 Eh      5.53 kcal/mol|
|  sn= 6 | S(rot)=       0.00863374 Eh      5.42 kcal/mol|
|  sn= 7 | S(rot)=       0.00848819 Eh      5.33 kcal/mol|
|  sn= 8 | S(rot)=       0.00836211 Eh      5.25 kcal/mol|
|  sn= 9 | S(rot)=       0.00825090 Eh      5.18 kcal/mol|
|  sn=10 | S(rot)=       0.00815142 Eh      5.12 kcal/mol|
|  sn=11 | S(rot)=       0.00806143 Eh      5.06 kcal/mol|
|  sn=12 | S(rot)=       0.00797928 Eh      5.01 kcal/mol|
 --------------------------------------------------------


-------------------
GIBBS FREE ENERGY
-------------------

The Gibbs free energy is G = H - T*S

Total enthalpy                    ...   -500.01141200 Eh 
Total entropy correction          ...     -0.03032228 Eh    -19.03 kcal/mol
-----------------------------------------------------------------------
Final Gibbs free energy         ...   -500.04173429 Eh

For completeness - the Gibbs free energy minus the electronic energy
G-E(el)                           ...      0.01338561 Eh      8.40 kcal/mol




------------------------------------------------------------------------------- 
                    Intrinsic Reaction Coordinate Calculation                  
------------------------------------------------------------------------------- 

System:
Nr. of atoms                        .... 6
Algorithm: SD (steepest descent step) plus correction
Settings:
Max. no of cycles        MaxIter    .... 1000
Direction                           .... Forward and backward
Initial displacement Hessian type   .... Read
Hessian Filename                    .... H3CHCl‡.hess
Following Hessian mode              .... 0
Initial displacement type           .... Energy
  Initial displacement energy change.... 0.250 mEh
Coordinate system following type    .... Cartesian
Length of steepest descent step     .... 0.150 bohr
Do parabolic fit 
  if SD step is uphill              .... YES
Do Correction to SD step            .... YES
Scaling for length of correction
  compared to SD step               .... 0.333
Do parabolic fit to SD correction   .... YES
Only interpolate for parabolic fit  .... YES
Do update to length of
  SD step and correction            .... YES
Convergence Tolerances:
  Max. Gradient            TolMAXG  ....  2.0000e-03 Eh/bohr
  RMS Gradient             TolRMSG  ....  5.0000e-04 Eh/bohr
Storing full IRC trajectory in      .... H3CHCl‡_IRC_Full_trj.xyz
Storing forward trajectory in       .... H3CHCl‡_IRC_F_trj.xyz
Storing backward trajectory in      .... H3CHCl‡_IRC_B_trj.xyz


 ...good, the file H3CHCl‡.hess exists
Reading the hessian file           ...... done
Determining length of initial displacement:
  Requested energy change (quadratic behavior): 0.250 mEh
  Resulting scaling factor for initial displacement along normalized TS mode: 0.0868

         *************************************************************
         *                          FORWARD IRC                      *
         *************************************************************

Iteration    E(Eh)      dE(kcal/mol)  max(|G|)   RMS(G) 
Convergence thresholds                0.002000  0.000500            
    0      -500.055407   -0.180283    0.007299  0.002246
    1      -500.057962   -1.783606    0.016712  0.005751
    2      -500.060373   -3.296213    0.012997  0.004147
    3      -500.062395   -4.565299    0.012066  0.003216
    4      -500.064164   -5.675521    0.010028  0.002747
    5      -500.065648   -6.606508    0.008629  0.002276
    6      -500.066902   -7.393400    0.007054  0.001971
    7      -500.067852   -7.989362    0.005767  0.002284
    8      -500.067984   -8.072030    0.005679  0.001674
    9      -500.068377   -8.318947    0.005153  0.001426
   10      -500.068749   -8.552628    0.004629  0.001376
   11      -500.068884   -8.636970    0.004431  0.001310
   12      -500.069043   -8.736702    0.004208  0.001089
   13      -500.069210   -8.841554    0.003943  0.001045
   14      -500.069363   -8.937792    0.003719  0.000962
   15      -500.069511   -9.030501    0.003478  0.000927
   16      -500.069646   -9.115079    0.003275  0.000848
   17      -500.069775   -9.196321    0.003061  0.000812
   18      -500.069894   -9.270642    0.002871  0.000761
   19      -500.070005   -9.340323    0.002687  0.000716
   20      -500.070107   -9.404594    0.002517  0.000672
   21      -500.070204   -9.465297    0.002352  0.000651
   22      -500.070290   -9.519345    0.002203  0.000616
   23      -500.070369   -9.569204    0.002061  0.000687
   24      -500.070390   -9.581833    0.002030  0.000587
   25      -500.070426   -9.604967    0.001969  0.000510
   26      -500.070467   -9.630177    0.001900  0.000491

                      ***********************HURRAY********************
                      ***            THE IRC HAS CONVERGED          ***
                      *************************************************


         *************************************************************
         *                          BACKWARD IRC                     *
         *************************************************************

Iteration    E(Eh)      dE(kcal/mol)  max(|G|)   RMS(G) 
Convergence thresholds                0.002000  0.000500            
    0      -500.055315   -0.122509    0.007111  0.001938
    1      -500.056624   -0.944137    0.008143  0.002731
    2      -500.058157   -1.905611    0.007288  0.002464
    3      -500.059540   -2.773585    0.005527  0.002061
    4      -500.060598   -3.437365    0.006563  0.002061
    5      -500.060738   -3.525452    0.004474  0.001698
    6      -500.060913   -3.635525    0.003627  0.001573
    7      -500.061114   -3.761075    0.003497  0.001332
    8      -500.061318   -3.889132    0.003057  0.001254
    9      -500.061503   -4.005744    0.003103  0.001152
   10      -500.061677   -4.114638    0.002755  0.001074
   11      -500.061837   -4.215199    0.002828  0.000991
   12      -500.061986   -4.308520    0.002616  0.000922
   13      -500.062122   -4.393570    0.002307  0.000840
   14      -500.062248   -4.472731    0.002397  0.000791
   15      -500.062362   -4.544577    0.001974  0.000713
   16      -500.062466   -4.609523    0.001973  0.000660
   17      -500.062561   -4.669341    0.001704  0.000608
   18      -500.062644   -4.721241    0.001886  0.000589
   19      -500.062713   -4.764601    0.002008  0.000742
   20      -500.062725   -4.771961    0.001437  0.000544
   21      -500.062758   -4.792988    0.001386  0.000477

                      ***********************HURRAY********************
                      ***            THE IRC HAS CONVERGED          ***
                      *************************************************


---------------------------------------------------------------
                       IRC PATH SUMMARY              
---------------------------------------------------------------
All gradients are in Eh/Bohr.

Step        E(Eh)      dE(kcal/mol)  max(|G|)   RMS(G) 
   1      -500.062758   -4.792988    0.001386  0.000477
   2      -500.062725   -4.771961    0.001437  0.000544
   3      -500.062713   -4.764601    0.002008  0.000742
   4      -500.062644   -4.721241    0.001886  0.000589
   5      -500.062561   -4.669341    0.001704  0.000608
   6      -500.062466   -4.609523    0.001973  0.000660
   7      -500.062362   -4.544577    0.001974  0.000713
   8      -500.062248   -4.472731    0.002397  0.000791
   9      -500.062122   -4.393570    0.002307  0.000840
  10      -500.061986   -4.308520    0.002616  0.000922
  11      -500.061837   -4.215199    0.002828  0.000991
  12      -500.061677   -4.114638    0.002755  0.001074
  13      -500.061503   -4.005744    0.003103  0.001152
  14      -500.061318   -3.889132    0.003057  0.001254
  15      -500.061114   -3.761075    0.003497  0.001332
  16      -500.060913   -3.635525    0.003627  0.001573
  17      -500.060738   -3.525452    0.004474  0.001698
  18      -500.060598   -3.437365    0.006563  0.002061
  19      -500.059540   -2.773585    0.005527  0.002061
  20      -500.058157   -1.905611    0.007288  0.002464
  21      -500.056624   -0.944137    0.008143  0.002731
  22      -500.055315   -0.122509    0.007111  0.001938
  23      -500.055120    0.000000    0.000065  0.000017 <= TS
  24      -500.055407   -0.180283    0.007299  0.002246
  25      -500.057962   -1.783606    0.016712  0.005751
  26      -500.060373   -3.296213    0.012997  0.004147
  27      -500.062395   -4.565299    0.012066  0.003216
  28      -500.064164   -5.675521    0.010028  0.002747
  29      -500.065648   -6.606508    0.008629  0.002276
  30      -500.066902   -7.393400    0.007054  0.001971
  31      -500.067852   -7.989362    0.005767  0.002284
  32      -500.067984   -8.072030    0.005679  0.001674
  33      -500.068377   -8.318947    0.005153  0.001426
  34      -500.068749   -8.552628    0.004629  0.001376
  35      -500.068884   -8.636970    0.004431  0.001310
  36      -500.069043   -8.736702    0.004208  0.001089
  37      -500.069210   -8.841554    0.003943  0.001045
  38      -500.069363   -8.937792    0.003719  0.000962
  39      -500.069511   -9.030501    0.003478  0.000927
  40      -500.069646   -9.115079    0.003275  0.000848
  41      -500.069775   -9.196321    0.003061  0.000812
  42      -500.069894   -9.270642    0.002871  0.000761
  43      -500.070005   -9.340323    0.002687  0.000716
  44      -500.070107   -9.404594    0.002517  0.000672
  45      -500.070204   -9.465297    0.002352  0.000651
  46      -500.070290   -9.519345    0.002203  0.000616
  47      -500.070369   -9.569204    0.002061  0.000687
  48      -500.070390   -9.581833    0.002030  0.000587
  49      -500.070426   -9.604967    0.001969  0.000510
  50      -500.070467   -9.630177    0.001900  0.000491

Timings for individual modules:

Sum of individual times         ...     2286.513 sec (=  38.109 min)
GTO integral calculation        ...      156.655 sec (=   2.611 min)   6.9 %
SCF iterations                  ...      864.337 sec (=  14.406 min)  37.8 %
MP2 module                      ...      999.013 sec (=  16.650 min)  43.7 %
Geometry relaxation             ...        0.200 sec (=   0.003 min)   0.0 %
Analytical frequency calculation...      266.307 sec (=   4.438 min)  11.6 %
                             ****ORCA TERMINATED NORMALLY****
TOTAL RUN TIME: 0 days 0 hours 38 minutes 11 seconds 202 msec
