
                                 *****************
                                 * O   R   C   A *
                                 *****************

           --- An Ab Initio, DFT and Semiempirical electronic structure package ---

                  #######################################################
                  #                        -***-                        #
                  #          Department of theory and spectroscopy      #
                  #               Directorship: Frank Neese             #
                  #        Max Planck Institute fuer Kohlenforschung    #
                  #                Kaiser Wilhelm Platz 1               #
                  #                 D-45470 Muelheim/Ruhr               #
                  #                      Germany                        #
                  #                                                     #
                  #                  All rights reserved                #
                  #                        -***-                        #
                  #######################################################


                         Program Version 4.2.1 -  RELEASE  -


 With contributions from (in alphabetic order):
   Daniel Aravena         : Magnetic Suceptibility
   Michael Atanasov       : Ab Initio Ligand Field Theory (pilot matlab implementation)
   Alexander A. Auer      : GIAO ZORA, VPT2
   Ute Becker             : Parallelization
   Giovanni Bistoni       : ED, misc. LED, open-shell LED, HFLD
   Martin Brehm           : Molecular dynamics
   Dmytro Bykov           : SCF Hessian
   Vijay G. Chilkuri      : MRCI spin determinant printing, contributions to CSF-ICE
   Dipayan Datta          : RHF DLPNO-CCSD density
   Achintya Kumar Dutta   : EOM-CC, STEOM-CC
   Dmitry Ganyushin       : Spin-Orbit,Spin-Spin,Magnetic field MRCI
   Miquel Garcia          : C-PCM Hessian, Gaussian charge scheme
   Yang Guo               : DLPNO-NEVPT2, CIM, IAO-localization
   Andreas Hansen         : Spin unrestricted coupled pair/coupled cluster methods
   Benjamin Helmich-Paris : CASSCF linear response (MC-RPA)
   Lee Huntington         : MR-EOM, pCC
   Robert Izsak           : Overlap fitted RIJCOSX, COSX-SCS-MP3, EOM
   Christian Kollmar      : KDIIS, OOCD, Brueckner-CCSD(T), CCSD density
   Simone Kossmann        : Meta GGA functionals, TD-DFT gradient, OOMP2, MP2 Hessian
   Martin Krupicka        : AUTO-CI
   Lucas Lang             : DCDCAS
   Dagmar Lenk            : GEPOL surface, SMD
   Dimitrios Liakos       : Extrapolation schemes; Compound Job, initial MDCI parallelization
   Dimitrios Manganas     : Further ROCIS development; embedding schemes
   Dimitrios Pantazis     : SARC Basis sets
   Taras Petrenko         : DFT Hessian,TD-DFT gradient, ASA, ECA, R-Raman, ABS, FL, XAS/XES, NRVS
   Peter Pinski           : DLPNO-MP2, DLPNO-MP2 Gradient
   Christoph Reimann      : Effective Core Potentials
   Marius Retegan         : Local ZFS, SOC
   Christoph Riplinger    : Optimizer, TS searches, QM/MM, DLPNO-CCSD(T), (RO)-DLPNO pert. Triples
   Tobias Risthaus        : Range-separated hybrids, TD-DFT gradient, RPA, STAB
   Michael Roemelt        : Original ROCIS implementation
   Masaaki Saitow         : Open-shell DLPNO-CCSD energy and density
   Barbara Sandhoefer     : DKH picture change effects
   Avijit Sen             : IP-ROCIS
   Kantharuban Sivalingam : CASSCF convergence, NEVPT2, FIC-MRCI
   Bernardo de Souza      : ESD, SOC TD-DFT
   Georgi Stoychev        : AutoAux, RI-MP2 NMR
   Willem Van den Heuvel  : Paramagnetic NMR
   Boris Wezisla          : Elementary symmetry handling
   Frank Wennmohs         : Technical directorship


 We gratefully acknowledge several colleagues who have allowed us to
 interface, adapt or use parts of their codes:
   Stefan Grimme, W. Hujo, H. Kruse,             : VdW corrections, initial TS optimization,
                  C. Bannwarth                     DFT functionals, gCP, sTDA/sTD-DF
   Ed Valeev, F. Pavosevic, A. Kumar             : LibInt (2-el integral package), F12 methods
   Garnet Chan, S. Sharma, J. Yang, R. Olivares  : DMRG
   Ulf Ekstrom                                   : XCFun DFT Library
   Mihaly Kallay                                 : mrcc  (arbitrary order and MRCC methods)
   Andreas Klamt, Michael Diedenhofen            : otool_cosmo (COSMO solvation model)
   Jiri Pittner, Ondrej Demel                    : Mk-CCSD
   Frank Weinhold                                : gennbo (NPA and NBO analysis)
   Christopher J. Cramer and Donald G. Truhlar   : smd solvation model
   Lars Goerigk                                  : TD-DFT with DH, B97 family of functionals
   V. Asgeirsson, H. Jonsson                     : NEB implementation
   FAccTs GmbH                                   : IRC, NEB, NEB-TS, Multilevel, MM, QM/MM, CI optimization
   S Lehtola, MJT Oliveira, MAL Marques          : LibXC Library


 Your calculation uses the libint2 library for the computation of 2-el integrals
 For citations please refer to: http://libint.valeyev.net

 Your ORCA version has been built with support for libXC version: 4.2.3
 For citations please refer to: https://tddft.org/programs/libxc/

 This ORCA versions uses:
   CBLAS   interface :  Fast vector & matrix operations
   LAPACKE interface :  Fast linear algebra routines
   SCALAPACK package :  Parallel linear algebra routines


----- Orbital basis set information -----
Your calculation utilizes the basis: 6-311G(2d,p)
   H, Li - Ne  : R. Krishnan, J. S. Binkley, R. Seeger and J. A. Pople, J. Chem. Phys. 72, 650 (1980).
   Na - Ar     : A. D. McLean and G. S. Chandler J. Chem. Phys. 72, 5639, (1980).
   K  - Ca     : J.-P. Blaudeau, M. P. McGrath, L. A. Curtiss and L. Radom, J. Chem. Phys. 107, 5016 (1997).
   Ga - Kr     : L. A. Curtiss, M. P. McGrath, J.-P. Blandeau, N. E. Davis, R. C. Binning and L. Radom, J. Chem. Phys. 103, 6104 (1995).
   Pol./Diff.
   H, Li - Cl  : T. Clark, J. Chandrasekhar and P. v. R. Schleyer, J. Comp. Chem. 4, 294 (1983).
   H - Ne      : M. J. Frisch, J. A. Pople and J. S. Binkley, J. Chem. Phys. 80, 3265 (1984).

================================================================================
                                        WARNINGS
                       Please study these warnings very carefully!
================================================================================


WARNING: Geometry Optimization
  ===> : Switching off AutoStart
         For restart on a previous wavefunction, please use MOREAD

WARNING: Post HF methods need fully converged wavefunctions
  ===> : Setting SCFConvForced true
         You can overwrite this default with %scf ConvForced false 


INFO   : the flag for use of LIBINT has been found!

================================================================================
                                       INPUT FILE
================================================================================
NAME = HCl.inp
|  1> ! UHF MP2 6-311G(2d,p) Opt Freq NoFrozenCore TightOpt TightSCF Grid4 FinalGrid5 PrintBasis PrintMOs NBO
|  2> %maxcore 3000
|  3> 
|  4> *xyz 0 1
|  5> Cl       0.000000000      0.000000000      0.034379000
|  6> H        0.000000000      0.000000000     -1.236571000
|  7> *
|  8> 
|  9> %pal
| 10>  nprocs 12
| 11> end
| 12> 
| 13>                          ****END OF INPUT****
================================================================================

                       *****************************
                       * Geometry Optimization Run *
                       *****************************

Geometry optimization settings:
Update method            Update   .... BFGS
Choice of coordinates    CoordSys .... Z-matrix Internals
Initial Hessian          InHess   .... Almoef's Model

Convergence Tolerances:
Energy Change            TolE     ....  1.0000e-06 Eh
Max. Gradient            TolMAXG  ....  1.0000e-04 Eh/bohr
RMS Gradient             TolRMSG  ....  3.0000e-05 Eh/bohr
Max. Displacement        TolMAXD  ....  1.0000e-03 bohr
RMS Displacement         TolRMSD  ....  6.0000e-04 bohr
Strict Convergence                ....  False
------------------------------------------------------------------------------
                        ORCA OPTIMIZATION COORDINATE SETUP
------------------------------------------------------------------------------

The optimization will be done in new redundant internal coordinates
Making redundant internal coordinates   ...  (new redundants) done
Evaluating the initial hessian          ...  (Almloef) done
Evaluating the coordinates              ...  done
Calculating the B-matrix                .... done
Calculating the G-matrix                .... done
Diagonalizing the G-matrix              .... done
The first mode is                       ....    0
The number of degrees of freedom        ....    1

    -----------------------------------------------------------------
                    Redundant Internal Coordinates


    -----------------------------------------------------------------
         Definition                    Initial Value    Approx d2E/dq
    -----------------------------------------------------------------
      1. B(H   1,Cl  0)                  1.2710         0.415647   
    -----------------------------------------------------------------

Number of atoms                         .... 2
Number of degrees of freedom            .... 1

         *************************************************************
         *                GEOMETRY OPTIMIZATION CYCLE   1            *
         *************************************************************
---------------------------------
CARTESIAN COORDINATES (ANGSTROEM)
---------------------------------
  Cl     0.000000    0.000000    0.034379
  H      0.000000    0.000000   -1.236571

----------------------------
CARTESIAN COORDINATES (A.U.)
----------------------------
  NO LB      ZA    FRAG     MASS         X           Y           Z
   0 Cl   17.0000    0    35.453    0.000000    0.000000    0.064967
   1 H     1.0000    0     1.008    0.000000    0.000000   -2.336781

--------------------------------
INTERNAL COORDINATES (ANGSTROEM)
--------------------------------
 Cl     0   0   0     0.000000000000     0.00000000     0.00000000
 H      1   0   0     1.270950000000     0.00000000     0.00000000

---------------------------
INTERNAL COORDINATES (A.U.)
---------------------------
 Cl     0   0   0     0.000000000000     0.00000000     0.00000000
 H      1   0   0     2.401747429907     0.00000000     0.00000000

---------------------
BASIS SET INFORMATION
---------------------
There are 2 groups of distinct atoms

 Group   1 Type Cl  : 13s10p2d contracted to 6s5p2d pattern {631111/52111/11}
 Group   2 Type H   : 5s1p contracted to 3s1p pattern {311/1}

Atom   0Cl   basis set group =>   1
Atom   1H    basis set group =>   2

-------------------------
BASIS SET IN INPUT FORMAT
-------------------------

 # Basis set for element : H 
 NewGTO H 
 S 3 
   1      33.8650000000      0.0254938145
   2       5.0947900000      0.1903731086
   3       1.1587900000      0.8521614860
 S 1 
   1       0.3258400000      1.0000000000
 S 1 
   1       0.1027410000      1.0000000000
 P 1 
   1       0.7500000000      1.0000000000
  end;

 # Basis set for element : Cl
 NewGTO Cl
 S 6 
   1  105819.0000000000      0.0007380002
   2   15872.0000000000      0.0057180019
   3    3619.6500000000      0.0294950099
   4    1030.8000000000      0.1172860392
   5     339.9080000000      0.3629491212
   6     124.5380000000      0.5841491951
 S 3 
   1     124.5380000000      0.1341769734
   2      49.5135000000      0.6242498762
   3      20.8056000000      0.2917559421
 S 1 
   1       6.5834600000      1.0000000000
 S 1 
   1       2.5646800000      1.0000000000
 S 1 
   1       0.5597630000      1.0000000000
 S 1 
   1       0.1832730000      1.0000000000
 P 5 
   1     589.7760000000      0.0023909997
   2     139.8490000000      0.0185039976
   3      45.1413000000      0.0813769893
   4      16.8733000000      0.2215519708
   5       6.7411000000      0.7725688983
 P 2 
   1       6.7411000000     -1.5722438126
   2       2.7715200000      0.9923888817
 P 1 
   1       1.0238700000      1.0000000000
 P 1 
   1       0.3813680000      1.0000000000
 P 1 
   1       0.1094370000      1.0000000000
 D 1 
   1       1.5000000000      1.0000000000
 D 1 
   1       0.3750000000      1.0000000000
  end;



           ************************************************************
           *        Program running with 12 parallel MPI-processes    *
           *              working on a common directory               *
           ************************************************************
------------------------------------------------------------------------------
                           ORCA GTO INTEGRAL CALCULATION
------------------------------------------------------------------------------

                         BASIS SET STATISTICS AND STARTUP INFO

 # of primitive gaussian shells          ...   31
 # of primitive gaussian functions       ...   61
 # of contracted shells                  ...   17
 # of contracted basis functions         ...   37
 Highest angular momentum                ...    2
 Maximum contraction depth               ...    6
 Integral package used                   ... LIBINT
 Integral threshhold            Thresh   ...  2.500e-11
 Primitive cut-off              TCut     ...  2.500e-12


------------------------------ INTEGRAL EVALUATION ----------------------------


 * One electron integrals 
 Pre-screening matrix                    ... done
 Shell pair data                         ... done (   0.000 sec)



           ************************************************************
           *        Program running with 12 parallel MPI-processes    *
           *              working on a common directory               *
           ************************************************************
-------------------------------------------------------------------------------
                                 ORCA SCF
-------------------------------------------------------------------------------

------------
SCF SETTINGS
------------
Hamiltonian:
 Ab initio Hamiltonian  Method          .... Hartree-Fock(GTOs)


General Settings:
 Integral files         IntName         .... HCl
 Hartree-Fock type      HFTyp           .... UHF
 Total Charge           Charge          ....    0
 Multiplicity           Mult            ....    1
 Number of Electrons    NEL             ....   18
 Basis Dimension        Dim             ....   37
 Nuclear Repulsion      ENuc            ....      7.0781797404 Eh

Convergence Acceleration:
 DIIS                   CNVDIIS         .... on
   Start iteration      DIISMaxIt       ....    12
   Startup error        DIISStart       ....  0.200000
   # of expansion vecs  DIISMaxEq       ....     5
   Bias factor          DIISBfac        ....   1.050
   Max. coefficient     DIISMaxC        ....  10.000
 Newton-Raphson         CNVNR           .... off
 SOSCF                  CNVSOSCF        .... off
 Level Shifting         CNVShift        .... on
   Level shift para.    LevelShift      ....    0.2500
   Turn off err/grad.   ShiftErr        ....    0.0010
 Zerner damping         CNVZerner       .... off
 Static damping         CNVDamp         .... on
   Fraction old density DampFac         ....    0.7000
   Max. Damping (<1)    DampMax         ....    0.9800
   Min. Damping (>=0)   DampMin         ....    0.0000
   Turn off err/grad.   DampErr         ....    0.1000
 Fernandez-Rico         CNVRico         .... off

SCF Procedure:
 Maximum # iterations   MaxIter         ....   125
 SCF integral mode      SCFMode         .... Direct
   Integral package                     .... LIBINT
 Reset frequency        DirectResetFreq ....    20
 Integral Threshold     Thresh          ....  2.500e-11 Eh
 Primitive CutOff       TCut            ....  2.500e-12 Eh

Convergence Tolerance:
 Convergence Check Mode ConvCheckMode   .... Total+1el-Energy
 Convergence forced     ConvForced      .... 1
 Energy Change          TolE            ....  1.000e-08 Eh
 1-El. energy change                    ....  1.000e-05 Eh
 DIIS Error             TolErr          ....  5.000e-07


Diagonalization of the overlap matrix:
Smallest eigenvalue                        ... 2.402e-02
Time for diagonalization                   ...    0.001 sec
Threshold for overlap eigenvalues          ... 1.000e-08
Number of eigenvalues below threshold      ... 0
Time for construction of square roots      ...    0.008 sec
Total time needed                          ...    0.008 sec

-------------------
DFT GRID GENERATION
-------------------

General Integration Accuracy     IntAcc      ...  4.670
Radial Grid Type                 RadialGrid  ... Gauss-Chebyshev
Angular Grid (max. acc.)         AngularGrid ... Lebedev-302
Angular grid pruning method      GridPruning ... 3 (G Style)
Weight generation scheme         WeightScheme... Becke
Basis function cutoff            BFCut       ...    1.0000e-11
Integration weight cutoff        WCut        ...    1.0000e-14
Grids for H and He will be reduced by one unit

# of grid points (after initial pruning)     ...  10132 (   0.0 sec)
# of grid points (after weights+screening)   ...  10103 (   0.0 sec)
nearest neighbour list constructed           ...    0.0 sec
Grid point re-assignment to atoms done       ...    0.0 sec
Grid point division into batches done        ...    0.0 sec
Reduced shell lists constructed in    0.0 sec

Total number of grid points                  ...    10103
Total number of batches                      ...      159
Average number of points per batch           ...       63
Average number of grid points per atom       ...     5052
Average number of shells per batch           ...     3.80 (22.35%)
Average number of basis functions per batch  ...     7.80 (21.08%)
Average number of large shells per batch     ...     2.53 (66.67%)
Average number of large basis fcns per batch ...     5.87 (75.21%)
Maximum spatial batch extension              ...  25.31, 23.02, 15.18 au
Average spatial batch extension              ...   1.46,  1.37,  0.97 au

Time for grid setup =    0.140 sec

------------------------------
INITIAL GUESS: MODEL POTENTIAL
------------------------------
Loading Hartree-Fock densities                     ... done
Calculating cut-offs                               ... done
Setting up the integral package                    ... done
Initializing the effective Hamiltonian             ... done
Starting the Coulomb interaction                   ... done (   0.0 sec)
Reading the grid                                   ... done
Mapping shells                                     ... done
Starting the XC term evaluation                    ... done (   0.0 sec)
Transforming the Hamiltonian                       ... done (   0.0 sec)
Diagonalizing the Hamiltonian                      ... done (   0.0 sec)
Back transforming the eigenvectors                 ... done (   0.0 sec)
Now organizing SCF variables                       ... done
                      ------------------
                      INITIAL GUESS DONE (   0.3 sec)
                      ------------------
--------------
SCF ITERATIONS
--------------
ITER       Energy         Delta-E        Max-DP      RMS-DP      [F,P]     Damp
               ***  Starting incremental Fock matrix formation  ***
  0   -460.0690028599   0.000000000000 0.01456871  0.00087368  0.6475379 0.7000
  1   -460.0772928981  -0.008290038218 0.01105243  0.00066649  0.4558490 0.7000
  2   -460.0830083112  -0.005715413093 0.00709521  0.00044936  0.3208214 0.7000
  3   -460.0869502886  -0.003941977410 0.00440788  0.00029970  0.2257280 0.7000
                               ***Turning on DIIS***
  4   -460.0897026883  -0.002752399746 0.00272583  0.00020391  0.1587672 0.7000
  5   -460.1337939094  -0.044091221048 0.00142651  0.00014556  0.1116379 0.7000
  6   -460.1235238846   0.010270024811 0.00375508  0.00036866  0.0782400 0.0000
  7   -460.0964433193   0.027080565221 0.00040539  0.00003449  0.0020826 0.0000
  8   -460.0970758733  -0.000632553984 0.00028829  0.00002322  0.0010258 0.0000
  9   -460.0961758683   0.000900005006 0.00013936  0.00001147  0.0003300 0.0000
 10   -460.0962488353  -0.000072966954 0.00002188  0.00000152  0.0000273 0.0000
 11   -460.0962776354  -0.000028800115 0.00000584  0.00000044  0.0000077 0.0000
 12   -460.0962516674   0.000025967958 0.00000139  0.00000008  0.0000012 0.0000
                            ***DIIS convergence achieved***

               *****************************************************
               *                     SUCCESS                       *
               *           SCF CONVERGED AFTER  13 CYCLES          *
               *****************************************************


----------------
TOTAL SCF ENERGY
----------------

Total Energy       :         -460.09625781 Eh          -12519.85567 eV

Components:
Nuclear Repulsion  :            7.07817974 Eh             192.60706 eV
Electronic Energy  :         -467.17443755 Eh          -12712.46273 eV
One Electron Energy:         -649.81920306 Eh          -17682.47948 eV
Two Electron Energy:          182.64476551 Eh            4970.01674 eV

Virial components:
Potential Energy   :         -920.20612448 Eh          -25040.08166 eV
Kinetic Energy     :          460.10986667 Eh           12520.22599 eV
Virial Ratio       :            1.99997042


---------------
SCF CONVERGENCE
---------------

  Last Energy change         ...   -6.1379e-06  Tolerance :   1.0000e-08
  Last MAX-Density change    ...    9.5854e-08  Tolerance :   1.0000e-07
  Last RMS-Density change    ...    8.4846e-09  Tolerance :   5.0000e-09
  Last DIIS Error            ...    2.9405e-07  Tolerance :   5.0000e-07

             **** THE GBW FILE WAS UPDATED (HCl.gbw) ****
             **** DENSITY FILE WAS UPDATED (HCl.scfp) ****
             **** ENERGY FILE WAS UPDATED (HCl.en.tmp) ****
----------------------
UHF SPIN CONTAMINATION
----------------------

Expectation value of <S**2>     :    -0.000000
Ideal value S*(S+1) for S=0.0   :     0.000000
Deviation                       :    -0.000000

             **** THE GBW FILE WAS UPDATED (HCl.gbw) ****
             **** DENSITY FILE WAS UPDATED (HCl.scfp) ****
----------------
ORBITAL ENERGIES
----------------
                 SPIN UP ORBITALS
  NO   OCC          E(Eh)            E(eV) 
   0   1.0000    -104.850391     -2853.1242 
   1   1.0000     -10.576882      -287.8116 
   2   1.0000      -8.045493      -218.9290 
   3   1.0000      -8.042217      -218.8399 
   4   1.0000      -8.042217      -218.8399 
   5   1.0000      -1.120869       -30.5004 
   6   1.0000      -0.630408       -17.1543 
   7   1.0000      -0.478178       -13.0119 
   8   1.0000      -0.478178       -13.0119 
   9   0.0000       0.124282         3.3819 
  10   0.0000       0.309091         8.4108 
  11   0.0000       0.417556        11.3623 
  12   0.0000       0.417556        11.3623 
  13   0.0000       0.447902        12.1880 
  14   0.0000       0.619509        16.8577 
  15   0.0000       0.619509        16.8577 
  16   0.0000       0.664972        18.0948 
  17   0.0000       0.664972        18.0948 
  18   0.0000       0.891114        24.2484 
  19   0.0000       1.009529        27.4707 
  20   0.0000       1.731857        47.1262 
  21   0.0000       1.731857        47.1262 
  22   0.0000       2.264825        61.6290 
  23   0.0000       2.466426        67.1149 
  24   0.0000       2.466426        67.1149 
  25   0.0000       2.495955        67.9184 
  26   0.0000       2.625311        71.4383 
  27   0.0000       2.730554        74.3021 
  28   0.0000       2.730554        74.3021 
  29   0.0000       2.753698        74.9319 
  30   0.0000       2.753698        74.9319 
  31   0.0000       2.996165        81.5298 
  32   0.0000      10.243981       278.7529 
  33   0.0000      26.224187       713.5964 
  34   0.0000      26.224187       713.5964 
  35   0.0000      26.500365       721.1116 
  36   0.0000     219.065238      5961.0682 

                 SPIN DOWN ORBITALS
  NO   OCC          E(Eh)            E(eV) 
   0   1.0000    -104.850391     -2853.1242 
   1   1.0000     -10.576882      -287.8116 
   2   1.0000      -8.045493      -218.9290 
   3   1.0000      -8.042217      -218.8399 
   4   1.0000      -8.042217      -218.8399 
   5   1.0000      -1.120869       -30.5004 
   6   1.0000      -0.630408       -17.1543 
   7   1.0000      -0.478178       -13.0119 
   8   1.0000      -0.478178       -13.0119 
   9   0.0000       0.124282         3.3819 
  10   0.0000       0.309091         8.4108 
  11   0.0000       0.417556        11.3623 
  12   0.0000       0.417556        11.3623 
  13   0.0000       0.447902        12.1880 
  14   0.0000       0.619509        16.8577 
  15   0.0000       0.619509        16.8577 
  16   0.0000       0.664972        18.0948 
  17   0.0000       0.664972        18.0948 
  18   0.0000       0.891114        24.2484 
  19   0.0000       1.009529        27.4707 
  20   0.0000       1.731857        47.1262 
  21   0.0000       1.731857        47.1262 
  22   0.0000       2.264825        61.6290 
  23   0.0000       2.466426        67.1149 
  24   0.0000       2.466426        67.1149 
  25   0.0000       2.495955        67.9184 
  26   0.0000       2.625311        71.4383 
  27   0.0000       2.730554        74.3021 
  28   0.0000       2.730554        74.3021 
  29   0.0000       2.753698        74.9319 
  30   0.0000       2.753698        74.9319 
  31   0.0000       2.996165        81.5298 
  32   0.0000      10.243981       278.7529 
  33   0.0000      26.224187       713.5964 
  34   0.0000      26.224187       713.5964 
  35   0.0000      26.500365       721.1116 
  36   0.0000     219.065238      5961.0682 
------------------
MOLECULAR ORBITALS
------------------
                      0         1         2         3         4         5   
                 -104.85039 -10.57688  -8.04549  -8.04222  -8.04222  -1.12087
                   1.00000   1.00000   1.00000   1.00000   1.00000   1.00000
                  --------  --------  --------  --------  --------  --------
  0Cl  1s         0.411732  0.121940 -0.000558 -0.000000  0.000000  0.034717
  0Cl  2s         0.654663  0.331489 -0.001559 -0.000000  0.000000  0.100475
  0Cl  3s         0.012082 -0.511825  0.003014  0.000000 -0.000000 -0.198688
  0Cl  4s        -0.000904 -0.605698  0.002202  0.000000  0.000000 -0.396024
  0Cl  5s         0.000202 -0.042340 -0.000801 -0.000000  0.000000  0.599992
  0Cl  6s        -0.000101  0.009770  0.000379  0.000000 -0.000000  0.507078
  0Cl  1pz       -0.000156  0.004662  1.230066  0.000000 -0.000000  0.042674
  0Cl  1px       -0.000000  0.000000  0.000000 -0.531881  1.110547 -0.000000
  0Cl  1py        0.000000 -0.000000  0.000000 -1.110547 -0.531881  0.000000
  0Cl  2pz       -0.000103  0.001271  0.327079  0.000000 -0.000000  0.011070
  0Cl  2px       -0.000000  0.000000  0.000000 -0.141378  0.295193 -0.000000
  0Cl  2py        0.000000 -0.000000  0.000000 -0.295193 -0.141378  0.000000
  0Cl  3pz        0.000106  0.000374  0.051806  0.000000 -0.000000 -0.029319
  0Cl  3px        0.000000  0.000000  0.000000 -0.021264  0.044399  0.000000
  0Cl  3py       -0.000000 -0.000000  0.000000 -0.044399 -0.021264 -0.000000
  0Cl  4pz       -0.000091  0.001717 -0.003483 -0.000000 -0.000000 -0.038325
  0Cl  4px       -0.000000 -0.000000 -0.000000  0.000949 -0.001982 -0.000000
  0Cl  4py        0.000000  0.000000 -0.000000  0.001982  0.000949  0.000000
  0Cl  5pz        0.000037 -0.002068  0.000843 -0.000000  0.000000 -0.015769
  0Cl  5px       -0.000000 -0.000000 -0.000000 -0.000289  0.000604  0.000000
  0Cl  5py       -0.000000 -0.000000  0.000000 -0.000604 -0.000289 -0.000000
  0Cl  1dz2       0.000006 -0.000787 -0.000674 -0.000000 -0.000000  0.012327
  0Cl  1dxz       0.000000  0.000000 -0.000000  0.000267 -0.000557 -0.000000
  0Cl  1dyz       0.000000 -0.000000  0.000000  0.000557  0.000267 -0.000000
  0Cl  1dx2y2    -0.000000  0.000000  0.000000  0.000000  0.000000 -0.000000
  0Cl  1dxy       0.000000  0.000000 -0.000000 -0.000000 -0.000000 -0.000000
  0Cl  2dz2       0.000019 -0.000186  0.000450  0.000000 -0.000000  0.008118
  0Cl  2dxz      -0.000000  0.000000 -0.000000 -0.000106  0.000222  0.000000
  0Cl  2dyz      -0.000000  0.000000 -0.000000 -0.000222 -0.000106 -0.000000
  0Cl  2dx2y2     0.000000  0.000000  0.000000  0.000000 -0.000000  0.000000
  0Cl  2dxy       0.000000  0.000000 -0.000000 -0.000000 -0.000000  0.000000
  1H   1s        -0.000003 -0.000277 -0.000440 -0.000000 -0.000000  0.088425
  1H   2s        -0.000048  0.001445 -0.001071 -0.000000 -0.000000  0.117627
  1H   3s         0.000049 -0.003536  0.000434  0.000000  0.000000 -0.010439
  1H   1pz       -0.000027  0.001134 -0.000377 -0.000000 -0.000000  0.033212
  1H   1px        0.000000  0.000000  0.000000 -0.000058  0.000121  0.000000
  1H   1py       -0.000000  0.000000 -0.000000 -0.000121 -0.000058 -0.000000
                      6         7         8         9        10        11   
                  -0.63041  -0.47818  -0.47818   0.12428   0.30909   0.41756
                   1.00000   1.00000   1.00000   0.00000   0.00000   0.00000
                  --------  --------  --------  --------  --------  --------
  0Cl  1s        -0.010444  0.000000  0.000000  0.010679 -0.002705  0.000000
  0Cl  2s        -0.030457  0.000000  0.000000  0.031936 -0.008049  0.000000
  0Cl  3s         0.062289  0.000000 -0.000000 -0.071836  0.017862  0.000000
  0Cl  4s         0.120760 -0.000000 -0.000000 -0.103675  0.027575  0.000000
  0Cl  5s        -0.185603  0.000000  0.000000  0.078432  0.016186 -0.000000
  0Cl  6s        -0.275809 -0.000000  0.000000  1.011877 -0.222785  0.000000
  0Cl  1pz        0.279141 -0.000000 -0.000000  0.130933 -0.010251 -0.000000
  0Cl  1px        0.000000  0.137916 -0.305152  0.000000  0.000000 -0.101938
  0Cl  1py        0.000000 -0.305152 -0.137916  0.000000  0.000000 -0.159333
  0Cl  2pz        0.068153 -0.000000 -0.000000  0.031959 -0.004895 -0.000000
  0Cl  2px        0.000000  0.032899 -0.072793  0.000000  0.000000 -0.016228
  0Cl  2py        0.000000 -0.072793 -0.032899  0.000000  0.000000 -0.025364
  0Cl  3pz       -0.200550  0.000000  0.000000 -0.102431  0.014592  0.000000
  0Cl  3px        0.000000 -0.099212  0.219515 -0.000000 -0.000000  0.023396
  0Cl  3py       -0.000000  0.219515  0.099212 -0.000000 -0.000000  0.036569
  0Cl  4pz       -0.428004  0.000000  0.000000 -0.219511 -0.034810  0.000000
  0Cl  4px       -0.000000 -0.245922  0.544126 -0.000000 -0.000000  0.527780
  0Cl  4py        0.000000  0.544126  0.245922 -0.000000 -0.000000  0.824938
  0Cl  5pz       -0.170521  0.000000 -0.000000 -0.824861  0.882086 -0.000000
  0Cl  5px       -0.000000 -0.138813  0.307138 -0.000000 -0.000000 -0.675791
  0Cl  5py       -0.000000  0.307138  0.138813 -0.000000 -0.000000 -1.056283
  0Cl  1dz2       0.033874  0.000000  0.000000 -0.026125  0.093867  0.000000
  0Cl  1dxz       0.000000  0.001709 -0.003782 -0.000000  0.000000 -0.002066
  0Cl  1dyz      -0.000000 -0.003782 -0.001709 -0.000000  0.000000 -0.003230
  0Cl  1dx2y2    -0.000000 -0.000000 -0.000000 -0.000000 -0.000000 -0.000000
  0Cl  1dxy      -0.000000  0.000000  0.000000 -0.000000  0.000000 -0.000000
  0Cl  2dz2       0.040993  0.000000  0.000000 -0.048649  0.134082  0.000000
  0Cl  2dxz      -0.000000  0.007061 -0.015623  0.000000  0.000000  0.001918
  0Cl  2dyz      -0.000000 -0.015623 -0.007061  0.000000  0.000000  0.002998
  0Cl  2dx2y2    -0.000000  0.000000  0.000000  0.000000 -0.000000 -0.000000
  0Cl  2dxy      -0.000000  0.000000 -0.000000  0.000000 -0.000000 -0.000000
  1H   1s         0.152609  0.000000  0.000000 -0.084664  0.088017  0.000000
  1H   2s         0.300867  0.000000  0.000000 -0.033201  1.154771  0.000000
  1H   3s         0.036396  0.000000 -0.000000 -1.716333 -0.683264 -0.000000
  1H   1pz        0.038231 -0.000000  0.000000  0.012391  0.048201  0.000000
  1H   1px       -0.000000 -0.009196  0.020348 -0.000000 -0.000000  0.005165
  1H   1py       -0.000000  0.020348  0.009196 -0.000000 -0.000000  0.008072
                     12        13        14        15        16        17   
                   0.41756   0.44790   0.61951   0.61951   0.66497   0.66497
                   0.00000   0.00000   0.00000   0.00000   0.00000   0.00000
                  --------  --------  --------  --------  --------  --------
  0Cl  1s         0.000000  0.004754  0.000000  0.000000 -0.000000 -0.000000
  0Cl  2s         0.000000  0.013527  0.000000  0.000000 -0.000000 -0.000000
  0Cl  3s        -0.000000 -0.024866 -0.000000 -0.000000  0.000000  0.000000
  0Cl  4s         0.000000 -0.072579 -0.000000 -0.000000 -0.000000  0.000000
  0Cl  5s        -0.000000  0.193616  0.000000  0.000000 -0.000000 -0.000000
  0Cl  6s         0.000000  0.164235 -0.000000 -0.000000  0.000000  0.000000
  0Cl  1pz        0.000000 -0.218794 -0.000000 -0.000000 -0.000000 -0.000000
  0Cl  1px        0.159333  0.000000 -0.012815 -0.009348  0.000000  0.000000
  0Cl  1py       -0.101938  0.000000 -0.009348  0.012815  0.000000 -0.000000
  0Cl  2pz        0.000000 -0.037989 -0.000000 -0.000000 -0.000000 -0.000000
  0Cl  2px        0.025364  0.000000 -0.002996 -0.002185  0.000000  0.000000
  0Cl  2py       -0.016228  0.000000 -0.002185  0.002996 -0.000000 -0.000000
  0Cl  3pz       -0.000000  0.061118 -0.000000 -0.000000  0.000000  0.000000
  0Cl  3px       -0.036569 -0.000000  0.011364  0.008290  0.000000 -0.000000
  0Cl  3py        0.023396 -0.000000  0.008290 -0.011364  0.000000  0.000000
  0Cl  4pz       -0.000000  1.064819  0.000000  0.000000 -0.000000  0.000000
  0Cl  4px       -0.824938 -0.000000  0.022994  0.016773 -0.000000  0.000000
  0Cl  4py        0.527780 -0.000000  0.016773 -0.022994 -0.000000 -0.000000
  0Cl  5pz       -0.000000 -1.305927 -0.000000 -0.000000  0.000000 -0.000000
  0Cl  5px        1.056283 -0.000000  0.019900  0.014516  0.000000 -0.000000
  0Cl  5py       -0.675791 -0.000000  0.014516 -0.019900  0.000000  0.000000
  0Cl  1dz2      -0.000000  0.049025 -0.000000 -0.000000 -0.000000  0.000000
  0Cl  1dxz       0.003230  0.000000  0.142095  0.103652  0.000000 -0.000000
  0Cl  1dyz      -0.002066 -0.000000  0.103652 -0.142095 -0.000000  0.000000
  0Cl  1dx2y2    -0.000000 -0.000000  0.000000 -0.000000  0.105332 -0.148951
  0Cl  1dxy      -0.000000 -0.000000  0.000000  0.000000 -0.148951 -0.105332
  0Cl  2dz2      -0.000000  0.195345 -0.000000 -0.000000  0.000000 -0.000000
  0Cl  2dxz      -0.002998  0.000000  0.689172  0.502720  0.000000  0.000000
  0Cl  2dyz       0.001918  0.000000  0.502720 -0.689172 -0.000000  0.000000
  0Cl  2dx2y2    -0.000000 -0.000000  0.000000 -0.000000  0.521498 -0.737456
  0Cl  2dxy       0.000000 -0.000000  0.000000  0.000000 -0.737456 -0.521498
  1H   1s        -0.000000  0.078453  0.000000  0.000000  0.000000 -0.000000
  1H   2s        -0.000000  0.523620  0.000000  0.000000 -0.000000  0.000000
  1H   3s         0.000000 -1.026868 -0.000000 -0.000000  0.000000 -0.000000
  1H   1pz       -0.000000 -0.006111  0.000000  0.000000 -0.000000 -0.000000
  1H   1px       -0.008072 -0.000000 -0.099858 -0.072842 -0.000000 -0.000000
  1H   1py        0.005165 -0.000000 -0.072842  0.099858  0.000000 -0.000000
                     18        19        20        21        22        23   
                   0.89111   1.00953   1.73186   1.73186   2.26482   2.46643
                   0.00000   0.00000   0.00000   0.00000   0.00000   0.00000
                  --------  --------  --------  --------  --------  --------
  0Cl  1s         0.020144 -0.027251  0.000000 -0.000000 -0.004475 -0.000000
  0Cl  2s         0.055579 -0.074295  0.000000 -0.000000 -0.013793 -0.000000
  0Cl  3s        -0.086480  0.106837  0.000000  0.000000  0.035233  0.000000
  0Cl  4s        -0.377642  0.555241 -0.000000  0.000000  0.039428  0.000000
  0Cl  5s         1.215448 -2.127789  0.000000 -0.000000  0.171246  0.000000
  0Cl  6s        -1.067008  2.833052 -0.000000  0.000000 -1.078278 -0.000000
  0Cl  1pz        0.095196 -0.019062  0.000000  0.000000 -0.348145 -0.000000
  0Cl  1px        0.000000  0.000000  0.009019 -0.088781 -0.000000  0.323140
  0Cl  1py        0.000000  0.000000  0.088781  0.009019  0.000000 -0.712290
  0Cl  2pz        0.022054 -0.010741  0.000000  0.000000 -0.100560 -0.000000
  0Cl  2px       -0.000000  0.000000  0.002575 -0.025352 -0.000000  0.107152
  0Cl  2py        0.000000  0.000000  0.025352  0.002575  0.000000 -0.236192
  0Cl  3pz       -0.077906  0.098526 -0.000000 -0.000000  0.606469  0.000000
  0Cl  3px        0.000000 -0.000000 -0.014495  0.142693  0.000000 -0.787612
  0Cl  3py        0.000000  0.000000 -0.142693 -0.014495 -0.000000  1.736114
  0Cl  4pz       -0.344028 -0.353640  0.000000  0.000000  0.204561 -0.000000
  0Cl  4px       -0.000000 -0.000000 -0.000707  0.006957 -0.000000  0.751180
  0Cl  4py       -0.000000 -0.000000 -0.006957 -0.000707  0.000000 -1.655809
  0Cl  5pz        0.111160 -1.014696 -0.000000 -0.000000  0.432442  0.000000
  0Cl  5px       -0.000000 -0.000000 -0.018585  0.182951  0.000000 -0.228215
  0Cl  5py       -0.000000  0.000000 -0.182951 -0.018585 -0.000000  0.503050
  0Cl  1dz2       0.148986  0.101025 -0.000000  0.000000  0.192702  0.000000
  0Cl  1dxz       0.000000  0.000000  0.013922 -0.137045  0.000000 -0.023634
  0Cl  1dyz       0.000000 -0.000000  0.137045  0.013922  0.000000  0.052096
  0Cl  1dx2y2    -0.000000 -0.000000 -0.000000  0.000000  0.000000 -0.000000
  0Cl  1dxy      -0.000000 -0.000000  0.000000  0.000000 -0.000000 -0.000000
  0Cl  2dz2       0.810972  0.876866 -0.000000 -0.000000 -0.850388 -0.000000
  0Cl  2dxz       0.000000  0.000000  0.045227 -0.445219  0.000000 -0.012906
  0Cl  2dyz      -0.000000  0.000000  0.445219  0.045227 -0.000000  0.028447
  0Cl  2dx2y2    -0.000000  0.000000  0.000000 -0.000000 -0.000000  0.000000
  0Cl  2dxy      -0.000000  0.000000 -0.000000 -0.000000  0.000000  0.000000
  1H   1s        -0.035162  0.077799  0.000000  0.000000  0.892543  0.000000
  1H   2s        -1.301265 -1.413216  0.000000  0.000000 -0.007232  0.000000
  1H   3s         1.112526 -0.718428 -0.000000 -0.000000  0.702423  0.000000
  1H   1pz        0.084690 -0.195231  0.000000  0.000000  1.041574  0.000000
  1H   1px        0.000000  0.000000  0.110144 -1.084262  0.000000 -0.066306
  1H   1py       -0.000000  0.000000  1.084262  0.110144 -0.000000  0.146156
                     24        25        26        27        28        29   
                   2.46643   2.49596   2.62531   2.73055   2.73055   2.75370
                   0.00000   0.00000   0.00000   0.00000   0.00000   0.00000
                  --------  --------  --------  --------  --------  --------
  0Cl  1s        -0.000000 -0.009331  0.002143  0.000000  0.000000  0.000000
  0Cl  2s        -0.000000 -0.026988  0.007516  0.000000  0.000000  0.000000
  0Cl  3s         0.000000  0.053507 -0.026584 -0.000000 -0.000000 -0.000000
  0Cl  4s         0.000000  0.160514  0.006445 -0.000000  0.000000  0.000000
  0Cl  5s        -0.000000 -0.205224 -0.020830  0.000000 -0.000000  0.000000
  0Cl  6s        -0.000000 -1.134723 -0.001623 -0.000000  0.000000 -0.000000
  0Cl  1pz        0.000000  0.380163 -0.602439  0.000000  0.000000 -0.000000
  0Cl  1px        0.712290 -0.000000 -0.000000 -0.000000  0.000000  0.029578
  0Cl  1py        0.323140 -0.000000  0.000000 -0.000000 -0.000000 -0.017669
  0Cl  2pz        0.000000  0.137251 -0.204170  0.000000  0.000000 -0.000000
  0Cl  2px        0.236192 -0.000000 -0.000000 -0.000000  0.000000  0.010173
  0Cl  2py        0.107152 -0.000000  0.000000 -0.000000 -0.000000 -0.006077
  0Cl  3pz       -0.000000 -1.199518  1.546676 -0.000000 -0.000000  0.000000
  0Cl  3px       -1.736114  0.000000  0.000000  0.000000 -0.000000 -0.085364
  0Cl  3py       -0.787612  0.000000 -0.000000  0.000000  0.000000  0.050993
  0Cl  4pz        0.000000  2.455829 -1.571996  0.000000  0.000000 -0.000000
  0Cl  4px        1.655809 -0.000000 -0.000000 -0.000000  0.000000  0.109263
  0Cl  4py        0.751180 -0.000000  0.000000 -0.000000 -0.000000 -0.065270
  0Cl  5pz        0.000000  0.049746  0.578244  0.000000 -0.000000  0.000000
  0Cl  5px       -0.503050  0.000000  0.000000  0.000000 -0.000000 -0.000456
  0Cl  5py       -0.228215  0.000000 -0.000000 -0.000000  0.000000  0.000272
  0Cl  1dz2       0.000000  0.490709  0.328156  0.000000 -0.000000 -0.000000
  0Cl  1dxz      -0.052096  0.000000  0.000000  0.000000 -0.000000  0.951507
  0Cl  1dyz      -0.023634  0.000000  0.000000 -0.000000 -0.000000 -0.568393
  0Cl  1dx2y2    -0.000000  0.000000  0.000000 -0.988981  0.503986  0.000000
  0Cl  1dxy       0.000000  0.000000  0.000000  0.503986  0.988981 -0.000000
  0Cl  2dz2      -0.000000 -1.358524 -0.009903 -0.000000  0.000000  0.000000
  0Cl  2dxz      -0.028447 -0.000000  0.000000 -0.000000  0.000000 -0.665006
  0Cl  2dyz      -0.012906 -0.000000 -0.000000  0.000000  0.000000  0.397248
  0Cl  2dx2y2     0.000000 -0.000000 -0.000000  0.597397 -0.304435 -0.000000
  0Cl  2dxy       0.000000 -0.000000 -0.000000 -0.304435 -0.597397  0.000000
  1H   1s        -0.000000 -0.697504 -0.943482  0.000000  0.000000 -0.000000
  1H   2s         0.000000  2.988407  0.753839  0.000000 -0.000000  0.000000
  1H   3s        -0.000000 -0.526116 -0.145748  0.000000  0.000000  0.000000
  1H   1pz        0.000000  1.312068 -0.140870  0.000000 -0.000000  0.000000
  1H   1px       -0.146156  0.000000  0.000000 -0.000000  0.000000 -0.218910
  1H   1py       -0.066306  0.000000 -0.000000  0.000000  0.000000  0.130768
                     30        31        32        33        34        35   
                   2.75370   2.99617  10.24398  26.22419  26.22419  26.50036
                   0.00000   0.00000   0.00000   0.00000   0.00000   0.00000
                  --------  --------  --------  --------  --------  --------
  0Cl  1s         0.000000  0.006996 -0.115772 -0.000000 -0.000000  0.001443
  0Cl  2s         0.000000  0.021036 -0.482036 -0.000000 -0.000000  0.004516
  0Cl  3s        -0.000000 -0.048357  2.650556  0.000000  0.000000 -0.033546
  0Cl  4s        -0.000000 -0.106803 -3.101659 -0.000000 -0.000000  0.053903
  0Cl  5s         0.000000  0.306203  1.672314  0.000000  0.000000 -0.040338
  0Cl  6s        -0.000000  0.264207 -0.743821 -0.000000 -0.000000 -0.013306
  0Cl  1pz       -0.000000  0.100398 -0.000584  0.000000 -0.000000  3.396018
  0Cl  1px       -0.017669 -0.000000 -0.000000  0.102771  3.356238  0.000000
  0Cl  1py       -0.029578  0.000000 -0.000000  3.356238 -0.102771 -0.000000
  0Cl  2pz       -0.000000  0.027055  0.010009  0.000000 -0.000000  3.430939
  0Cl  2px       -0.006077  0.000000 -0.000000  0.104133  3.400723  0.000000
  0Cl  2py       -0.010173  0.000000 -0.000000  3.400723 -0.104133 -0.000000
  0Cl  3pz        0.000000 -0.141761  0.081518 -0.000000  0.000000 -2.403815
  0Cl  3px        0.050993  0.000000  0.000000 -0.070926 -2.316282 -0.000000
  0Cl  3py        0.085364 -0.000000  0.000000 -2.316282  0.070926  0.000000
  0Cl  4pz       -0.000000 -0.504899 -0.298159  0.000000 -0.000000  1.260165
  0Cl  4px       -0.065270 -0.000000 -0.000000  0.033114  1.081422  0.000000
  0Cl  4py       -0.109263  0.000000 -0.000000  1.081422 -0.033114 -0.000000
  0Cl  5pz        0.000000 -0.000531  0.186784 -0.000000  0.000000 -0.310186
  0Cl  5px        0.000272  0.000000  0.000000 -0.008625 -0.281663 -0.000000
  0Cl  5py        0.000456 -0.000000  0.000000 -0.281663  0.008625  0.000000
  0Cl  1dz2       0.000000  0.950934  0.023192  0.000000 -0.000000  0.022111
  0Cl  1dxz      -0.568393  0.000000  0.000000  0.000124  0.004061  0.000000
  0Cl  1dyz      -0.951507  0.000000  0.000000  0.004061 -0.000124 -0.000000
  0Cl  1dx2y2     0.000000  0.000000 -0.000000  0.000000 -0.000000  0.000000
  0Cl  1dxy      -0.000000 -0.000000  0.000000  0.000000 -0.000000  0.000000
  0Cl  2dz2      -0.000000 -0.262576  0.094614 -0.000000  0.000000 -0.122731
  0Cl  2dxz       0.397248 -0.000000 -0.000000 -0.000482 -0.015740 -0.000000
  0Cl  2dyz       0.665006 -0.000000 -0.000000 -0.015740  0.000482  0.000000
  0Cl  2dx2y2    -0.000000 -0.000000  0.000000 -0.000000 -0.000000 -0.000000
  0Cl  2dxy       0.000000  0.000000 -0.000000 -0.000000  0.000000 -0.000000
  1H   1s        -0.000000  0.589085  0.033470  0.000000 -0.000000  0.047203
  1H   2s         0.000000 -1.098663 -0.295867  0.000000 -0.000000  0.256115
  1H   3s         0.000000  0.204275  0.337926 -0.000000  0.000000 -0.174604
  1H   1pz       -0.000000 -0.832162 -0.208126  0.000000 -0.000000  0.051196
  1H   1px        0.130768 -0.000000  0.000000 -0.001055 -0.034448 -0.000000
  1H   1py        0.218910 -0.000000 -0.000000 -0.034448  0.001055  0.000000
                     36   
                 219.06524
                   0.00000
                  --------
  0Cl  1s         1.542066
  0Cl  2s        -1.914719
  0Cl  3s         1.437319
  0Cl  4s        -0.963136
  0Cl  5s         0.380285
  0Cl  6s        -0.171835
  0Cl  1pz       -0.010303
  0Cl  1px        0.000000
  0Cl  1py        0.000000
  0Cl  2pz       -0.008683
  0Cl  2px        0.000000
  0Cl  2py        0.000000
  0Cl  3pz        0.022361
  0Cl  3px       -0.000000
  0Cl  3py        0.000000
  0Cl  4pz       -0.060677
  0Cl  4px        0.000000
  0Cl  4py       -0.000000
  0Cl  5pz        0.043684
  0Cl  5px       -0.000000
  0Cl  5py        0.000000
  0Cl  1dz2       0.003427
  0Cl  1dxz       0.000000
  0Cl  1dyz       0.000000
  0Cl  1dx2y2    -0.000000
  0Cl  1dxy      -0.000000
  0Cl  2dz2       0.017629
  0Cl  2dxz      -0.000000
  0Cl  2dyz       0.000000
  0Cl  2dx2y2     0.000000
  0Cl  2dxy      -0.000000
  1H   1s         0.006730
  1H   2s        -0.056777
  1H   3s         0.076642
  1H   1pz       -0.039095
  1H   1px       -0.000000
  1H   1py        0.000000

                      0         1         2         3         4         5   
                 -104.85039 -10.57688  -8.04549  -8.04222  -8.04222  -1.12087
                   1.00000   1.00000   1.00000   1.00000   1.00000   1.00000
                  --------  --------  --------  --------  --------  --------
  0Cl  1s         0.411732  0.121940 -0.000558 -0.000000  0.000000  0.034717
  0Cl  2s         0.654663  0.331489 -0.001559 -0.000000  0.000000  0.100475
  0Cl  3s         0.012082 -0.511825  0.003014  0.000000 -0.000000 -0.198688
  0Cl  4s        -0.000904 -0.605698  0.002202  0.000000  0.000000 -0.396024
  0Cl  5s         0.000202 -0.042340 -0.000801 -0.000000  0.000000  0.599992
  0Cl  6s        -0.000101  0.009770  0.000379  0.000000 -0.000000  0.507078
  0Cl  1pz       -0.000156  0.004662  1.230066  0.000000 -0.000000  0.042674
  0Cl  1px       -0.000000  0.000000  0.000000 -0.531881  1.110547 -0.000000
  0Cl  1py        0.000000 -0.000000  0.000000 -1.110547 -0.531881  0.000000
  0Cl  2pz       -0.000103  0.001271  0.327079  0.000000 -0.000000  0.011070
  0Cl  2px       -0.000000  0.000000  0.000000 -0.141378  0.295193 -0.000000
  0Cl  2py        0.000000 -0.000000  0.000000 -0.295193 -0.141378  0.000000
  0Cl  3pz        0.000106  0.000374  0.051806  0.000000 -0.000000 -0.029319
  0Cl  3px        0.000000  0.000000  0.000000 -0.021264  0.044399  0.000000
  0Cl  3py       -0.000000 -0.000000  0.000000 -0.044399 -0.021264 -0.000000
  0Cl  4pz       -0.000091  0.001717 -0.003483 -0.000000 -0.000000 -0.038325
  0Cl  4px       -0.000000 -0.000000 -0.000000  0.000949 -0.001982 -0.000000
  0Cl  4py        0.000000  0.000000 -0.000000  0.001982  0.000949  0.000000
  0Cl  5pz        0.000037 -0.002068  0.000843 -0.000000  0.000000 -0.015769
  0Cl  5px       -0.000000 -0.000000 -0.000000 -0.000289  0.000604  0.000000
  0Cl  5py       -0.000000 -0.000000  0.000000 -0.000604 -0.000289 -0.000000
  0Cl  1dz2       0.000006 -0.000787 -0.000674 -0.000000 -0.000000  0.012327
  0Cl  1dxz       0.000000  0.000000 -0.000000  0.000267 -0.000557 -0.000000
  0Cl  1dyz       0.000000 -0.000000  0.000000  0.000557  0.000267 -0.000000
  0Cl  1dx2y2    -0.000000  0.000000  0.000000  0.000000  0.000000 -0.000000
  0Cl  1dxy       0.000000  0.000000 -0.000000 -0.000000 -0.000000 -0.000000
  0Cl  2dz2       0.000019 -0.000186  0.000450  0.000000 -0.000000  0.008118
  0Cl  2dxz      -0.000000  0.000000 -0.000000 -0.000106  0.000222  0.000000
  0Cl  2dyz      -0.000000  0.000000 -0.000000 -0.000222 -0.000106 -0.000000
  0Cl  2dx2y2     0.000000  0.000000  0.000000  0.000000 -0.000000  0.000000
  0Cl  2dxy       0.000000  0.000000 -0.000000 -0.000000 -0.000000  0.000000
  1H   1s        -0.000003 -0.000277 -0.000440 -0.000000 -0.000000  0.088425
  1H   2s        -0.000048  0.001445 -0.001071 -0.000000 -0.000000  0.117627
  1H   3s         0.000049 -0.003536  0.000434  0.000000  0.000000 -0.010439
  1H   1pz       -0.000027  0.001134 -0.000377 -0.000000 -0.000000  0.033212
  1H   1px        0.000000  0.000000  0.000000 -0.000058  0.000121  0.000000
  1H   1py       -0.000000  0.000000 -0.000000 -0.000121 -0.000058 -0.000000
                      6         7         8         9        10        11   
                  -0.63041  -0.47818  -0.47818   0.12428   0.30909   0.41756
                   1.00000   1.00000   1.00000   0.00000   0.00000   0.00000
                  --------  --------  --------  --------  --------  --------
  0Cl  1s        -0.010444  0.000000  0.000000  0.010679 -0.002705  0.000000
  0Cl  2s        -0.030457  0.000000  0.000000  0.031936 -0.008049  0.000000
  0Cl  3s         0.062289  0.000000 -0.000000 -0.071836  0.017862  0.000000
  0Cl  4s         0.120760 -0.000000 -0.000000 -0.103675  0.027575  0.000000
  0Cl  5s        -0.185603  0.000000  0.000000  0.078432  0.016186 -0.000000
  0Cl  6s        -0.275809 -0.000000  0.000000  1.011877 -0.222785  0.000000
  0Cl  1pz        0.279141 -0.000000 -0.000000  0.130933 -0.010251 -0.000000
  0Cl  1px        0.000000  0.137916 -0.305152  0.000000  0.000000 -0.101938
  0Cl  1py        0.000000 -0.305152 -0.137916  0.000000  0.000000 -0.159333
  0Cl  2pz        0.068153 -0.000000 -0.000000  0.031959 -0.004895 -0.000000
  0Cl  2px        0.000000  0.032899 -0.072793  0.000000  0.000000 -0.016228
  0Cl  2py        0.000000 -0.072793 -0.032899  0.000000  0.000000 -0.025364
  0Cl  3pz       -0.200550  0.000000  0.000000 -0.102431  0.014592  0.000000
  0Cl  3px        0.000000 -0.099212  0.219515 -0.000000 -0.000000  0.023396
  0Cl  3py       -0.000000  0.219515  0.099212 -0.000000 -0.000000  0.036569
  0Cl  4pz       -0.428004  0.000000  0.000000 -0.219511 -0.034810  0.000000
  0Cl  4px       -0.000000 -0.245922  0.544126 -0.000000 -0.000000  0.527780
  0Cl  4py        0.000000  0.544126  0.245922 -0.000000 -0.000000  0.824938
  0Cl  5pz       -0.170521  0.000000 -0.000000 -0.824861  0.882086 -0.000000
  0Cl  5px       -0.000000 -0.138813  0.307138 -0.000000 -0.000000 -0.675791
  0Cl  5py       -0.000000  0.307138  0.138813 -0.000000 -0.000000 -1.056283
  0Cl  1dz2       0.033874  0.000000  0.000000 -0.026125  0.093867  0.000000
  0Cl  1dxz       0.000000  0.001709 -0.003782 -0.000000  0.000000 -0.002066
  0Cl  1dyz      -0.000000 -0.003782 -0.001709 -0.000000  0.000000 -0.003230
  0Cl  1dx2y2    -0.000000 -0.000000 -0.000000 -0.000000 -0.000000 -0.000000
  0Cl  1dxy      -0.000000  0.000000  0.000000 -0.000000  0.000000 -0.000000
  0Cl  2dz2       0.040993  0.000000  0.000000 -0.048649  0.134082  0.000000
  0Cl  2dxz      -0.000000  0.007061 -0.015623  0.000000  0.000000  0.001918
  0Cl  2dyz      -0.000000 -0.015623 -0.007061  0.000000  0.000000  0.002998
  0Cl  2dx2y2    -0.000000  0.000000  0.000000  0.000000 -0.000000 -0.000000
  0Cl  2dxy      -0.000000  0.000000 -0.000000  0.000000 -0.000000 -0.000000
  1H   1s         0.152609  0.000000  0.000000 -0.084664  0.088017  0.000000
  1H   2s         0.300867  0.000000  0.000000 -0.033201  1.154771  0.000000
  1H   3s         0.036396  0.000000 -0.000000 -1.716333 -0.683264 -0.000000
  1H   1pz        0.038231 -0.000000  0.000000  0.012391  0.048201  0.000000
  1H   1px       -0.000000 -0.009196  0.020348 -0.000000 -0.000000  0.005165
  1H   1py       -0.000000  0.020348  0.009196 -0.000000 -0.000000  0.008072
                     12        13        14        15        16        17   
                   0.41756   0.44790   0.61951   0.61951   0.66497   0.66497
                   0.00000   0.00000   0.00000   0.00000   0.00000   0.00000
                  --------  --------  --------  --------  --------  --------
  0Cl  1s         0.000000  0.004754  0.000000  0.000000 -0.000000 -0.000000
  0Cl  2s         0.000000  0.013527  0.000000  0.000000 -0.000000 -0.000000
  0Cl  3s        -0.000000 -0.024866 -0.000000 -0.000000  0.000000  0.000000
  0Cl  4s         0.000000 -0.072579 -0.000000 -0.000000 -0.000000  0.000000
  0Cl  5s        -0.000000  0.193616  0.000000  0.000000 -0.000000 -0.000000
  0Cl  6s         0.000000  0.164235 -0.000000 -0.000000  0.000000  0.000000
  0Cl  1pz        0.000000 -0.218794 -0.000000 -0.000000 -0.000000 -0.000000
  0Cl  1px        0.159333  0.000000 -0.012815 -0.009348  0.000000  0.000000
  0Cl  1py       -0.101938  0.000000 -0.009348  0.012815  0.000000 -0.000000
  0Cl  2pz        0.000000 -0.037989 -0.000000 -0.000000 -0.000000 -0.000000
  0Cl  2px        0.025364  0.000000 -0.002996 -0.002185  0.000000  0.000000
  0Cl  2py       -0.016228  0.000000 -0.002185  0.002996 -0.000000 -0.000000
  0Cl  3pz       -0.000000  0.061118 -0.000000 -0.000000  0.000000  0.000000
  0Cl  3px       -0.036569 -0.000000  0.011364  0.008290  0.000000 -0.000000
  0Cl  3py        0.023396 -0.000000  0.008290 -0.011364  0.000000  0.000000
  0Cl  4pz       -0.000000  1.064819  0.000000  0.000000 -0.000000  0.000000
  0Cl  4px       -0.824938 -0.000000  0.022994  0.016773 -0.000000  0.000000
  0Cl  4py        0.527780 -0.000000  0.016773 -0.022994 -0.000000 -0.000000
  0Cl  5pz       -0.000000 -1.305927 -0.000000 -0.000000  0.000000 -0.000000
  0Cl  5px        1.056283 -0.000000  0.019900  0.014516  0.000000 -0.000000
  0Cl  5py       -0.675791 -0.000000  0.014516 -0.019900  0.000000  0.000000
  0Cl  1dz2      -0.000000  0.049025 -0.000000 -0.000000 -0.000000  0.000000
  0Cl  1dxz       0.003230  0.000000  0.142095  0.103652  0.000000 -0.000000
  0Cl  1dyz      -0.002066 -0.000000  0.103652 -0.142095 -0.000000  0.000000
  0Cl  1dx2y2    -0.000000 -0.000000  0.000000 -0.000000  0.105332 -0.148951
  0Cl  1dxy      -0.000000 -0.000000  0.000000  0.000000 -0.148951 -0.105332
  0Cl  2dz2      -0.000000  0.195345 -0.000000 -0.000000  0.000000 -0.000000
  0Cl  2dxz      -0.002998  0.000000  0.689172  0.502720  0.000000  0.000000
  0Cl  2dyz       0.001918  0.000000  0.502720 -0.689172 -0.000000  0.000000
  0Cl  2dx2y2    -0.000000 -0.000000  0.000000 -0.000000  0.521498 -0.737456
  0Cl  2dxy       0.000000 -0.000000  0.000000  0.000000 -0.737456 -0.521498
  1H   1s        -0.000000  0.078453  0.000000  0.000000  0.000000 -0.000000
  1H   2s        -0.000000  0.523620  0.000000  0.000000 -0.000000  0.000000
  1H   3s         0.000000 -1.026868 -0.000000 -0.000000  0.000000 -0.000000
  1H   1pz       -0.000000 -0.006111  0.000000  0.000000 -0.000000 -0.000000
  1H   1px       -0.008072 -0.000000 -0.099858 -0.072842 -0.000000 -0.000000
  1H   1py        0.005165 -0.000000 -0.072842  0.099858  0.000000 -0.000000
                     18        19        20        21        22        23   
                   0.89111   1.00953   1.73186   1.73186   2.26482   2.46643
                   0.00000   0.00000   0.00000   0.00000   0.00000   0.00000
                  --------  --------  --------  --------  --------  --------
  0Cl  1s         0.020144 -0.027251  0.000000 -0.000000 -0.004475 -0.000000
  0Cl  2s         0.055579 -0.074295  0.000000 -0.000000 -0.013793 -0.000000
  0Cl  3s        -0.086480  0.106837  0.000000  0.000000  0.035233  0.000000
  0Cl  4s        -0.377642  0.555241 -0.000000  0.000000  0.039428  0.000000
  0Cl  5s         1.215448 -2.127789  0.000000 -0.000000  0.171246  0.000000
  0Cl  6s        -1.067008  2.833052 -0.000000  0.000000 -1.078278 -0.000000
  0Cl  1pz        0.095196 -0.019062  0.000000  0.000000 -0.348145 -0.000000
  0Cl  1px        0.000000  0.000000  0.009019 -0.088781 -0.000000  0.323140
  0Cl  1py        0.000000  0.000000  0.088781  0.009019  0.000000 -0.712290
  0Cl  2pz        0.022054 -0.010741  0.000000  0.000000 -0.100560 -0.000000
  0Cl  2px       -0.000000  0.000000  0.002575 -0.025352 -0.000000  0.107152
  0Cl  2py        0.000000  0.000000  0.025352  0.002575  0.000000 -0.236192
  0Cl  3pz       -0.077906  0.098526 -0.000000 -0.000000  0.606469  0.000000
  0Cl  3px        0.000000 -0.000000 -0.014495  0.142693  0.000000 -0.787612
  0Cl  3py        0.000000  0.000000 -0.142693 -0.014495 -0.000000  1.736114
  0Cl  4pz       -0.344028 -0.353640  0.000000  0.000000  0.204561 -0.000000
  0Cl  4px       -0.000000 -0.000000 -0.000707  0.006957 -0.000000  0.751180
  0Cl  4py       -0.000000 -0.000000 -0.006957 -0.000707  0.000000 -1.655809
  0Cl  5pz        0.111160 -1.014696 -0.000000 -0.000000  0.432442  0.000000
  0Cl  5px       -0.000000 -0.000000 -0.018585  0.182951  0.000000 -0.228215
  0Cl  5py       -0.000000  0.000000 -0.182951 -0.018585 -0.000000  0.503050
  0Cl  1dz2       0.148986  0.101025 -0.000000  0.000000  0.192702  0.000000
  0Cl  1dxz       0.000000  0.000000  0.013922 -0.137045  0.000000 -0.023634
  0Cl  1dyz       0.000000 -0.000000  0.137045  0.013922  0.000000  0.052096
  0Cl  1dx2y2    -0.000000 -0.000000 -0.000000  0.000000  0.000000 -0.000000
  0Cl  1dxy      -0.000000 -0.000000  0.000000  0.000000 -0.000000 -0.000000
  0Cl  2dz2       0.810972  0.876866 -0.000000 -0.000000 -0.850388 -0.000000
  0Cl  2dxz       0.000000  0.000000  0.045227 -0.445219  0.000000 -0.012906
  0Cl  2dyz      -0.000000  0.000000  0.445219  0.045227 -0.000000  0.028447
  0Cl  2dx2y2    -0.000000  0.000000  0.000000 -0.000000 -0.000000  0.000000
  0Cl  2dxy      -0.000000  0.000000 -0.000000 -0.000000  0.000000  0.000000
  1H   1s        -0.035162  0.077799  0.000000  0.000000  0.892543  0.000000
  1H   2s        -1.301265 -1.413216  0.000000  0.000000 -0.007232  0.000000
  1H   3s         1.112526 -0.718428 -0.000000 -0.000000  0.702423  0.000000
  1H   1pz        0.084690 -0.195231  0.000000  0.000000  1.041574  0.000000
  1H   1px        0.000000  0.000000  0.110144 -1.084262  0.000000 -0.066306
  1H   1py       -0.000000  0.000000  1.084262  0.110144 -0.000000  0.146156
                     24        25        26        27        28        29   
                   2.46643   2.49596   2.62531   2.73055   2.73055   2.75370
                   0.00000   0.00000   0.00000   0.00000   0.00000   0.00000
                  --------  --------  --------  --------  --------  --------
  0Cl  1s        -0.000000 -0.009331  0.002143  0.000000  0.000000  0.000000
  0Cl  2s        -0.000000 -0.026988  0.007516  0.000000  0.000000  0.000000
  0Cl  3s         0.000000  0.053507 -0.026584 -0.000000 -0.000000 -0.000000
  0Cl  4s         0.000000  0.160514  0.006445 -0.000000  0.000000  0.000000
  0Cl  5s        -0.000000 -0.205224 -0.020830  0.000000 -0.000000  0.000000
  0Cl  6s        -0.000000 -1.134723 -0.001623 -0.000000  0.000000 -0.000000
  0Cl  1pz        0.000000  0.380163 -0.602439  0.000000  0.000000 -0.000000
  0Cl  1px        0.712290 -0.000000 -0.000000 -0.000000  0.000000  0.029578
  0Cl  1py        0.323140 -0.000000  0.000000 -0.000000 -0.000000 -0.017669
  0Cl  2pz        0.000000  0.137251 -0.204170  0.000000  0.000000 -0.000000
  0Cl  2px        0.236192 -0.000000 -0.000000 -0.000000  0.000000  0.010173
  0Cl  2py        0.107152 -0.000000  0.000000 -0.000000 -0.000000 -0.006077
  0Cl  3pz       -0.000000 -1.199518  1.546676 -0.000000 -0.000000  0.000000
  0Cl  3px       -1.736114  0.000000  0.000000  0.000000 -0.000000 -0.085364
  0Cl  3py       -0.787612  0.000000 -0.000000  0.000000  0.000000  0.050993
  0Cl  4pz        0.000000  2.455829 -1.571996  0.000000  0.000000 -0.000000
  0Cl  4px        1.655809 -0.000000 -0.000000 -0.000000  0.000000  0.109263
  0Cl  4py        0.751180 -0.000000  0.000000 -0.000000 -0.000000 -0.065270
  0Cl  5pz        0.000000  0.049746  0.578244  0.000000 -0.000000  0.000000
  0Cl  5px       -0.503050  0.000000  0.000000  0.000000 -0.000000 -0.000456
  0Cl  5py       -0.228215  0.000000 -0.000000 -0.000000  0.000000  0.000272
  0Cl  1dz2       0.000000  0.490709  0.328156  0.000000 -0.000000 -0.000000
  0Cl  1dxz      -0.052096  0.000000  0.000000  0.000000 -0.000000  0.951507
  0Cl  1dyz      -0.023634  0.000000  0.000000 -0.000000 -0.000000 -0.568393
  0Cl  1dx2y2    -0.000000  0.000000  0.000000 -0.988981  0.503986  0.000000
  0Cl  1dxy       0.000000  0.000000  0.000000  0.503986  0.988981 -0.000000
  0Cl  2dz2      -0.000000 -1.358524 -0.009903 -0.000000  0.000000  0.000000
  0Cl  2dxz      -0.028447 -0.000000  0.000000 -0.000000  0.000000 -0.665006
  0Cl  2dyz      -0.012906 -0.000000 -0.000000  0.000000  0.000000  0.397248
  0Cl  2dx2y2     0.000000 -0.000000 -0.000000  0.597397 -0.304435 -0.000000
  0Cl  2dxy       0.000000 -0.000000 -0.000000 -0.304435 -0.597397  0.000000
  1H   1s        -0.000000 -0.697504 -0.943482  0.000000  0.000000 -0.000000
  1H   2s         0.000000  2.988407  0.753839  0.000000 -0.000000  0.000000
  1H   3s        -0.000000 -0.526116 -0.145748  0.000000  0.000000  0.000000
  1H   1pz        0.000000  1.312068 -0.140870  0.000000 -0.000000  0.000000
  1H   1px       -0.146156  0.000000  0.000000 -0.000000  0.000000 -0.218910
  1H   1py       -0.066306  0.000000 -0.000000  0.000000  0.000000  0.130768
                     30        31        32        33        34        35   
                   2.75370   2.99617  10.24398  26.22419  26.22419  26.50036
                   0.00000   0.00000   0.00000   0.00000   0.00000   0.00000
                  --------  --------  --------  --------  --------  --------
  0Cl  1s         0.000000  0.006996 -0.115772 -0.000000 -0.000000  0.001443
  0Cl  2s         0.000000  0.021036 -0.482036 -0.000000 -0.000000  0.004516
  0Cl  3s        -0.000000 -0.048357  2.650556  0.000000  0.000000 -0.033546
  0Cl  4s        -0.000000 -0.106803 -3.101659 -0.000000 -0.000000  0.053903
  0Cl  5s         0.000000  0.306203  1.672314  0.000000  0.000000 -0.040338
  0Cl  6s        -0.000000  0.264207 -0.743821 -0.000000 -0.000000 -0.013306
  0Cl  1pz       -0.000000  0.100398 -0.000584  0.000000 -0.000000  3.396018
  0Cl  1px       -0.017669 -0.000000 -0.000000  0.102771  3.356238  0.000000
  0Cl  1py       -0.029578  0.000000 -0.000000  3.356238 -0.102771 -0.000000
  0Cl  2pz       -0.000000  0.027055  0.010009  0.000000 -0.000000  3.430939
  0Cl  2px       -0.006077  0.000000 -0.000000  0.104133  3.400723  0.000000
  0Cl  2py       -0.010173  0.000000 -0.000000  3.400723 -0.104133 -0.000000
  0Cl  3pz        0.000000 -0.141761  0.081518 -0.000000  0.000000 -2.403815
  0Cl  3px        0.050993  0.000000  0.000000 -0.070926 -2.316282 -0.000000
  0Cl  3py        0.085364 -0.000000  0.000000 -2.316282  0.070926  0.000000
  0Cl  4pz       -0.000000 -0.504899 -0.298159  0.000000 -0.000000  1.260165
  0Cl  4px       -0.065270 -0.000000 -0.000000  0.033114  1.081422  0.000000
  0Cl  4py       -0.109263  0.000000 -0.000000  1.081422 -0.033114 -0.000000
  0Cl  5pz        0.000000 -0.000531  0.186784 -0.000000  0.000000 -0.310186
  0Cl  5px        0.000272  0.000000  0.000000 -0.008625 -0.281663 -0.000000
  0Cl  5py        0.000456 -0.000000  0.000000 -0.281663  0.008625  0.000000
  0Cl  1dz2       0.000000  0.950934  0.023192  0.000000 -0.000000  0.022111
  0Cl  1dxz      -0.568393  0.000000  0.000000  0.000124  0.004061  0.000000
  0Cl  1dyz      -0.951507  0.000000  0.000000  0.004061 -0.000124 -0.000000
  0Cl  1dx2y2     0.000000  0.000000 -0.000000  0.000000 -0.000000  0.000000
  0Cl  1dxy      -0.000000 -0.000000  0.000000  0.000000 -0.000000  0.000000
  0Cl  2dz2      -0.000000 -0.262576  0.094614 -0.000000  0.000000 -0.122731
  0Cl  2dxz       0.397248 -0.000000 -0.000000 -0.000482 -0.015740 -0.000000
  0Cl  2dyz       0.665006 -0.000000 -0.000000 -0.015740  0.000482  0.000000
  0Cl  2dx2y2    -0.000000 -0.000000  0.000000 -0.000000 -0.000000 -0.000000
  0Cl  2dxy       0.000000  0.000000 -0.000000 -0.000000  0.000000 -0.000000
  1H   1s        -0.000000  0.589085  0.033470  0.000000 -0.000000  0.047203
  1H   2s         0.000000 -1.098663 -0.295867  0.000000 -0.000000  0.256115
  1H   3s         0.000000  0.204275  0.337926 -0.000000  0.000000 -0.174604
  1H   1pz       -0.000000 -0.832162 -0.208126  0.000000 -0.000000  0.051196
  1H   1px        0.130768 -0.000000  0.000000 -0.001055 -0.034448 -0.000000
  1H   1py        0.218910 -0.000000 -0.000000 -0.034448  0.001055  0.000000
                     36   
                 219.06524
                   0.00000
                  --------
  0Cl  1s         1.542066
  0Cl  2s        -1.914719
  0Cl  3s         1.437319
  0Cl  4s        -0.963136
  0Cl  5s         0.380285
  0Cl  6s        -0.171835
  0Cl  1pz       -0.010303
  0Cl  1px        0.000000
  0Cl  1py        0.000000
  0Cl  2pz       -0.008683
  0Cl  2px        0.000000
  0Cl  2py        0.000000
  0Cl  3pz        0.022361
  0Cl  3px       -0.000000
  0Cl  3py        0.000000
  0Cl  4pz       -0.060677
  0Cl  4px        0.000000
  0Cl  4py       -0.000000
  0Cl  5pz        0.043684
  0Cl  5px       -0.000000
  0Cl  5py        0.000000
  0Cl  1dz2       0.003427
  0Cl  1dxz       0.000000
  0Cl  1dyz       0.000000
  0Cl  1dx2y2    -0.000000
  0Cl  1dxy      -0.000000
  0Cl  2dz2       0.017629
  0Cl  2dxz      -0.000000
  0Cl  2dyz       0.000000
  0Cl  2dx2y2     0.000000
  0Cl  2dxy      -0.000000
  1H   1s         0.006730
  1H   2s        -0.056777
  1H   3s         0.076642
  1H   1pz       -0.039095
  1H   1px       -0.000000
  1H   1py        0.000000



                    ********************************
                    * MULLIKEN POPULATION ANALYSIS *
                    ********************************

--------------------------------------------
MULLIKEN ATOMIC CHARGES AND SPIN POPULATIONS
--------------------------------------------
   0 Cl:   -0.189391    0.000000
   1 H :    0.189391    0.000000
Sum of atomic charges         :   -0.0000000
Sum of atomic spin populations:    0.0000000

-----------------------------------------------------
MULLIKEN REDUCED ORBITAL CHARGES AND SPIN POPULATIONS
-----------------------------------------------------
CHARGE
  0 Cls       :     5.924554  s :     5.924554
      pz      :     3.256084  p :    11.232703
      px      :     3.988309
      py      :     3.988309
      dz2     :     0.029979  d :     0.032133
      dxz     :     0.001077
      dyz     :     0.001077
      dx2y2   :     0.000000
      dxy     :     0.000000
  1 H s       :     0.756122  s :     0.756122
      pz      :     0.033260  p :     0.054487
      px      :     0.010613
      py      :     0.010613

SPIN
  0 Cls       :     0.000000  s :     0.000000
      pz      :     0.000000  p :     0.000000
      px      :     0.000000
      py      :     0.000000
      dz2     :     0.000000  d :     0.000000
      dxz     :     0.000000
      dyz     :     0.000000
      dx2y2   :     0.000000
      dxy     :     0.000000
  1 H s       :     0.000000  s :     0.000000
      pz      :     0.000000  p :     0.000000
      px      :     0.000000
      py      :     0.000000


                     *******************************
                     * LOEWDIN POPULATION ANALYSIS *
                     *******************************

-------------------------------------------
LOEWDIN ATOMIC CHARGES AND SPIN POPULATIONS
-------------------------------------------
   0 Cl:    0.009433    0.000000
   1 H :   -0.009433    0.000000

----------------------------------------------------
LOEWDIN REDUCED ORBITAL CHARGES AND SPIN POPULATIONS
----------------------------------------------------
CHARGE
  0 Cls       :     5.709721  s :     5.709721
      pz      :     3.292527  p :    11.237527
      px      :     3.972500
      py      :     3.972500
      dz2     :     0.042294  d :     0.043319
      dxz     :     0.000513
      dyz     :     0.000513
      dx2y2   :     0.000000
      dxy     :     0.000000
  1 H s       :     0.878630  s :     0.878630
      pz      :     0.076829  p :     0.130804
      px      :     0.026987
      py      :     0.026987

SPIN
  0 Cls       :     0.000000  s :     0.000000
      pz      :     0.000000  p :     0.000000
      px      :     0.000000
      py      :     0.000000
      dz2     :     0.000000  d :     0.000000
      dxz     :     0.000000
      dyz     :     0.000000
      dx2y2   :     0.000000
      dxy     :     0.000000
  1 H s       :     0.000000  s :     0.000000
      pz      :     0.000000  p :     0.000000
      px      :     0.000000
      py      :     0.000000


                      *****************************
                      * MAYER POPULATION ANALYSIS *
                      *****************************

  NA   - Mulliken gross atomic population
  ZA   - Total nuclear charge
  QA   - Mulliken gross atomic charge
  VA   - Mayer's total valence
  BVA  - Mayer's bonded valence
  FA   - Mayer's free valence

  ATOM       NA         ZA         QA         VA         BVA        FA
  0 Cl    17.1894    17.0000    -0.1894     0.9787     0.9787    -0.0000
  1 H      0.8106     1.0000     0.1894     0.9787     0.9787     0.0000

  Mayer bond orders larger than 0.100000
B(  0-Cl,  1-H ) :   0.9787 

Now starting NBO....

 *********************************** NBO 7.0 ***********************************
             N A T U R A L   A T O M I C   O R B I T A L   A N D
          N A T U R A L   B O N D   O R B I T A L   A N A L Y S I S
 *********************** Giovanni  F. Caramori (I101916) ***********************
  (c) Copyright 1996-2020 Board of Regents of the University of Wisconsin System
      on behalf of the Theoretical Chemistry Institute.  All rights reserved.

          Cite this program [NBO 7.0.8 (11-Feb-2020)] as:

          NBO 7.0.  E. D. Glendening, J. K. Badenhoop, A. E. Reed,
          J. E. Carpenter, J. A. Bohmann, C. M. Morales, P. Karafiloglou,
          C. R. Landis, and F. Weinhold, Theoretical Chemistry Institute,
          University of Wisconsin, Madison, WI (2018)

       /NPA    / : Natural Population Analysis
       /NBO    / : Natural Bond Orbital Analysis
       /AONBO  / : Checkpoint the AO to NBO transformation
       /ARCHIVE/ : Write the archive file to lfn47

 Job title: ORCA Job: HCl


 NATURAL POPULATIONS:  Natural atomic orbital occupancies

  NAO Atom No lang   Type(AO)    Occupancy     Spin
 -----------------------------------------------------
   1   Cl  1  s      Cor( 1s)     2.00000     0.00000
   2   Cl  1  s      Cor( 2s)     1.99999     0.00000
   3   Cl  1  s      Val( 3s)     1.89114     0.00000
   4   Cl  1  s      Ryd( 4s)     0.00009     0.00000
   5   Cl  1  s      Ryd( 5s)     0.00000     0.00000
   6   Cl  1  s      Ryd( 6s)     0.00000     0.00000
   7   Cl  1  px     Cor( 2p)     2.00000     0.00000
   8   Cl  1  px     Val( 3p)     1.99750     0.00000
   9   Cl  1  px     Ryd( 4p)     0.00034     0.00000
  10   Cl  1  px     Ryd( 5p)     0.00000     0.00000
  11   Cl  1  px     Ryd( 6p)     0.00000     0.00000
  12   Cl  1  py     Cor( 2p)     2.00000     0.00000
  13   Cl  1  py     Val( 3p)     1.99750     0.00000
  14   Cl  1  py     Ryd( 4p)     0.00034     0.00000
  15   Cl  1  py     Ryd( 5p)     0.00000     0.00000
  16   Cl  1  py     Ryd( 6p)     0.00000     0.00000
  17   Cl  1  pz     Cor( 2p)     2.00000     0.00000
  18   Cl  1  pz     Val( 3p)     1.34766     0.00000
  19   Cl  1  pz     Ryd( 4p)     0.00205     0.00000
  20   Cl  1  pz     Ryd( 5p)     0.00001     0.00000
  21   Cl  1  pz     Ryd( 6p)     0.00000     0.00000
  22   Cl  1  dxy    Ryd( 3d)     0.00000     0.00000
  23   Cl  1  dxy    Ryd( 4d)     0.00000     0.00000
  24   Cl  1  dxz    Ryd( 3d)     0.00100     0.00000
  25   Cl  1  dxz    Ryd( 4d)     0.00005     0.00000
  26   Cl  1  dyz    Ryd( 3d)     0.00100     0.00000
  27   Cl  1  dyz    Ryd( 4d)     0.00005     0.00000
  28   Cl  1  dx2y2  Ryd( 3d)     0.00000     0.00000
  29   Cl  1  dx2y2  Ryd( 4d)     0.00000     0.00000
  30   Cl  1  dz2    Ryd( 3d)     0.01148     0.00000
  31   Cl  1  dz2    Ryd( 4d)     0.00002     0.00000

  32    H  2  s      Val( 1s)     0.74143     0.00000
  33    H  2  s      Ryd( 3s)     0.00027     0.00000
  34    H  2  s      Ryd( 2s)     0.00000     0.00000
  35    H  2  px     Ryd( 2p)     0.00111     0.00000
  36    H  2  py     Ryd( 2p)     0.00111     0.00000
  37    H  2  pz     Ryd( 2p)     0.00585     0.00000


 Summary of Natural Population Analysis:

                                     Natural Population                 Natural
             Natural    ---------------------------------------------    Spin
  Atom No    Charge        Core      Valence    Rydberg      Total      Density
 -------------------------------------------------------------------------------
   Cl  1   -0.25023      9.99999     7.23382    0.01643    17.25023     0.00000
    H  2    0.25023      0.00000     0.74143    0.00834     0.74977     0.00000
 ===============================================================================
 * Total *  0.00000      9.99999     7.97525    0.02476    18.00000     0.00000

                                 Natural Population
 ---------------------------------------------------------
   Core                       9.99999 ( 99.9999% of   10)
   Valence                    7.97525 ( 99.6906% of    8)
   Natural Minimal Basis     17.97524 ( 99.8624% of   18)
   Natural Rydberg Basis      0.02476 (  0.1376% of   18)
 ---------------------------------------------------------

    Atom No         Natural Electron Configuration
 ----------------------------------------------------------------------------
     Cl  1      [core]3s( 1.89)3p( 5.34)3d( 0.01)
      H  2            1s( 0.74)2p( 0.01)


 ***************************************************
 *******         Alpha spin orbitals         *******
 ***************************************************


 NATURAL POPULATIONS:  Natural atomic orbital occupancies

  NAO Atom No lang   Type(AO)    Occupancy      Energy
 -------------------------------------------------------
   1   Cl  1  s      Cor( 1s)     1.00000    -104.83962
   2   Cl  1  s      Cor( 2s)     1.00000     -10.58748
   3   Cl  1  s      Val( 3s)     0.94557      -1.00136
   4   Cl  1  s      Ryd( 4s)     0.00005       3.75021
   5   Cl  1  s      Ryd( 5s)     0.00000       9.53067
   6   Cl  1  s      Ryd( 6s)     0.00000     216.75577
   7   Cl  1  px     Cor( 2p)     1.00000      -8.04221
   8   Cl  1  px     Val( 3p)     0.99875      -0.47657
   9   Cl  1  px     Ryd( 4p)     0.00017       0.72766
  10   Cl  1  px     Ryd( 5p)     0.00000       2.61422
  11   Cl  1  px     Ryd( 6p)     0.00000      25.76164
  12   Cl  1  py     Cor( 2p)     1.00000      -8.04221
  13   Cl  1  py     Val( 3p)     0.99875      -0.47657
  14   Cl  1  py     Ryd( 4p)     0.00017       0.72766
  15   Cl  1  py     Ryd( 5p)     0.00000       2.61422
  16   Cl  1  py     Ryd( 6p)     0.00000      25.76164
  17   Cl  1  pz     Cor( 2p)     1.00000      -8.04551
  18   Cl  1  pz     Val( 3p)     0.67383      -0.33020
  19   Cl  1  pz     Ryd( 4p)     0.00103       0.80382
  20   Cl  1  pz     Ryd( 5p)     0.00001       2.52547
  21   Cl  1  pz     Ryd( 6p)     0.00000      25.92825
  22   Cl  1  dxy    Ryd( 3d)     0.00000       0.78626
  23   Cl  1  dxy    Ryd( 4d)     0.00000       2.60926
  24   Cl  1  dxz    Ryd( 3d)     0.00050       0.85756
  25   Cl  1  dxz    Ryd( 4d)     0.00002       2.64405
  26   Cl  1  dyz    Ryd( 3d)     0.00050       0.85756
  27   Cl  1  dyz    Ryd( 4d)     0.00002       2.64405
  28   Cl  1  dx2y2  Ryd( 3d)     0.00000       0.78626
  29   Cl  1  dx2y2  Ryd( 4d)     0.00000       2.60926
  30   Cl  1  dz2    Ryd( 3d)     0.00574       1.29890
  31   Cl  1  dz2    Ryd( 4d)     0.00001       2.74825

  32    H  2  s      Val( 1s)     0.37072      -0.05612
  33    H  2  s      Ryd( 3s)     0.00013       2.30024
  34    H  2  s      Ryd( 2s)     0.00000       0.65707
  35    H  2  px     Ryd( 2p)     0.00055       1.60650
  36    H  2  py     Ryd( 2p)     0.00055       1.60650
  37    H  2  pz     Ryd( 2p)     0.00292       2.31136


 Summary of Natural Population Analysis:

                                     Natural Population
             Natural    ---------------------------------------------
  Atom No    Charge        Core      Valence    Rydberg      Total
 --------------------------------------------------------------------
   Cl  1   -0.12512      4.99999     3.61691    0.00821     8.62512
    H  2    0.12512      0.00000     0.37072    0.00417     0.37488
 ====================================================================
 * Total *  0.00000      4.99999     3.98762    0.01238     9.00000

                                 Natural Population
 ---------------------------------------------------------
   Core                       4.99999 ( 99.9999% of    5)
   Valence                    3.98762 ( 99.6906% of    4)
   Natural Minimal Basis      8.98762 ( 99.8624% of    9)
   Natural Rydberg Basis      0.01238 (  0.1376% of    9)
 ---------------------------------------------------------

    Atom No         Natural Electron Configuration
 ----------------------------------------------------------------------------
     Cl  1      [core]3s( 0.95)3p( 2.67)3d( 0.01)
      H  2            1s( 0.37)


 NATURAL BOND ORBITAL ANALYSIS, alpha spin orbitals:

                            Occupancies       Lewis Structure    Low   High
         Max    Occ     -------------------  -----------------   occ   occ
  Cycle  Ctr   Thresh    Lewis   non-Lewis     CR  BD  nC  LP    (L)   (NL)
 ============================================================================
    1     2     0.95     8.99874   0.00126      5   1   0   3     0      0
 ----------------------------------------------------------------------------

 Structure accepted: No low occupancy Lewis orbitals

 -------------------------------------------------------
   Core                      4.99999 (100.000% of   5)
   Valence Lewis             3.99875 ( 99.969% of   4)
  ==================      =============================
   Total Lewis               8.99874 ( 99.986% of   9)
  -----------------------------------------------------
   Valence non-Lewis         0.00000 (  0.000% of   9)
   Rydberg non-Lewis         0.00126 (  0.014% of   9)
  ==================      =============================
   Total non-Lewis           0.00126 (  0.014% of   9)
 -------------------------------------------------------


     (Occupancy)   Bond orbital / Coefficients / Hybrids
 ------------------ Lewis ------------------------------------------------------
   1. (1.00000) CR ( 1)Cl  1            s(100.00%)
                                         1.0000  0.0000  0.0000  0.0000  0.0000
                                         0.0000  0.0000  0.0000  0.0000  0.0000
                                         0.0000  0.0000  0.0000  0.0000  0.0000
                                         0.0000  0.0000  0.0000  0.0000  0.0000
                                         0.0000  0.0000  0.0000  0.0000  0.0000
                                         0.0000  0.0000  0.0000  0.0000  0.0000
                                         0.0000
   2. (1.00000) CR ( 2)Cl  1            s(100.00%)
                                         0.0000  1.0000  0.0000  0.0000  0.0000
[...]
                                         0.0000  0.0000 -0.0025  0.0206  0.0977
                                        -0.0013  0.0000  0.0000  0.0000  0.0000
                                         0.0000  0.0000  0.0000  0.0000  0.0000
                                         0.0214  0.9948  0.0000  0.0000  0.0000
                                         0.0000
  27. (0.00024) RY (17)Cl  1            s( 48.95%)p 0.52( 25.23%)d 0.53( 25.81%)
                                         0.0000  0.0000 -0.0004 -0.0100  0.6996
                                        -0.0040  0.0000  0.0000  0.0000  0.0000
                                         0.0000  0.0000  0.0000  0.0000  0.0000
                                         0.0000  0.0000 -0.0033  0.0675  0.4974
                                        -0.0191  0.0000  0.0000  0.0000  0.0000
                                         0.0000  0.0000  0.0000  0.0000 -0.0228
                                         0.5075
  28. (0.00018) RY (18)Cl  1            s( 12.02%)p 1.33( 16.01%)d 5.99( 71.97%)
                                         0.0000  0.0000  0.0010 -0.1089  0.3288
                                        -0.0130  0.0000  0.0000  0.0000  0.0000
                                         0.0000  0.0000  0.0000  0.0000  0.0000
                                         0.0000  0.0000 -0.0118  0.0962  0.3882
                                        -0.0031  0.0000  0.0000  0.0000  0.0000
                                         0.0000  0.0000  0.0000  0.0000  0.0581
                                        -0.8464
  29. (0.00002) RY (19)Cl  1            s( 99.98%)p 0.00(  0.02%)d 0.00(  0.01%)
  30. (0.00001) RY (20)Cl  1            s(  0.00%)p 1.00(100.00%)d 0.00(  0.00%)
  31. (0.00001) RY (21)Cl  1            s(  0.01%)p 1.00( 99.98%)d 0.00(  0.01%)
  32. (0.00001) RY (22)Cl  1            s(  0.00%)p 1.00(100.00%)d 0.00(  0.00%)
  33. (0.00142) RY ( 1) H  2            s(  0.00%)p 1.00(100.00%)
                                         0.0000  0.0000  0.0000  1.0000  0.0000
                                         0.0000
  34. (0.00142) RY ( 2) H  2            s(  0.00%)p 1.00(100.00%)
                                         0.0000  0.0000  0.0000  0.0000  1.0000
                                         0.0000
  35. (0.00099) RY ( 3) H  2            s( 65.24%)p 0.53( 34.76%)
                                         0.0409  0.8049 -0.0533  0.0000  0.0000
                                        -0.5896
  36. (0.00034) RY ( 4) H  2            s( 42.30%)p 1.36( 57.70%)
                                        -0.0527  0.5784  0.2927  0.0000  0.0000
                                         0.7596
  37. (0.00012) RY ( 5) H  2            s( 92.93%)p 0.08(  7.07%)
                                         0.0181 -0.1324  0.9547  0.0000  0.0000
                                        -0.2658


 NHO DIRECTIONALITY AND BOND BENDING (deviation from line of nuclear centers at
                                      the position of maximum hybrid amplitude)

         [Thresholds for printing:  angular deviation  >  1.0 degree]
                                    p- or d-character  > 25.0%
                                    orbital occupancy  >  0.10e

                        Line of Centers        Hybrid 1             Hybrid 2
                        ---------------  -------------------  ------------------
           NBO            Theta   Phi    Theta   Phi    Dev   Theta   Phi    Dev
 ===============================================================================
   7. LP ( 2)Cl  1          --     --     93.5  180.0   --      --     --    --
   8. LP ( 3)Cl  1          --     --     93.5   90.0   --      --     --    --


 NATURAL BOND ORBITALS (Summary):

           NBO                 Occupancy
 ========================================
 Molecular unit  1  (HCl)
 ------ Lewis ---------------------------
    1. CR ( 1)Cl  1             0.99998
    2. CR ( 2)Cl  1             0.99969
    3. CR ( 3)Cl  1             0.99953
    4. CR ( 4)Cl  1             0.99953
    5. CR ( 5)Cl  1             0.99948
    6. LP ( 1)Cl  1             0.98952
    7. LP ( 2)Cl  1             0.98026
    8. LP ( 3)Cl  1             0.98026
    9. BD ( 1)Cl  1- H  2       0.98420
 ------ non-Lewis -----------------------
   10. BD*( 1)Cl  1- H  2       0.01058
   11. RY ( 1)Cl  1             0.00805
   12. RY ( 2)Cl  1             0.00805
   13. RY ( 3)Cl  1             0.00750
   14. RY ( 4)Cl  1             0.00750
   15. RY ( 5)Cl  1             0.00532
   16. RY ( 6)Cl  1             0.00472
   17. RY ( 7)Cl  1             0.00472
   18. RY ( 8)Cl  1             0.00320
   19. RY ( 9)Cl  1             0.00108
   20. RY (10)Cl  1             0.00035
   21. RY (11)Cl  1             0.00035
   22. RY (12)Cl  1             0.00030
   23. RY (13)Cl  1             0.00029
   24. RY (14)Cl  1             0.00029
   25. RY (15)Cl  1             0.00025
   26. RY (16)Cl  1             0.00025
   27. RY (17)Cl  1             0.00024
   28. RY (18)Cl  1             0.00018
   29. RY (19)Cl  1             0.00002
   30. RY (20)Cl  1             0.00001
   31. RY (21)Cl  1             0.00001
   32. RY (22)Cl  1             0.00001
   33. RY ( 1) H  2             0.00142
   34. RY ( 2) H  2             0.00142
   35. RY ( 3) H  2             0.00099
   36. RY ( 4) H  2             0.00034
   37. RY ( 5) H  2             0.00012
          -------------------------------
                 Total Lewis    8.93245  ( 99.2494%)
           Valence non-Lewis    0.01058  (  0.1176%)
           Rydberg non-Lewis    0.05697  (  0.6330%)
          -------------------------------
               Total unit  1    9.00000  (100.0000%)
              Charge unit  1    0.00000

 $CHOOSE
  ALPHA
   LONE 1 3 END
   BOND S 1 2 END
  END
  BETA
   LONE 1 3 END
   BOND S 1 2 END
  END
 $END

 NBO analysis completed in 0.08 CPU seconds (1 wall second)
 Maximum scratch memory used by NBO was 412983 words (3.15 MB)
Stopping NBO...Storing NBOs: HCl.pmp2re.nbo

                                *** returned from   NBO  program ***


----------------------------------
MP2 DERIVATIVE INTEGRAL GENERATION
----------------------------------


Input Wavefunction Amplitudes       ... HCl.mp2tbb.tmp
Input Correlated Electron Density   ... HCl.pmp2re
Input Energy Weighted Density       ... HCl.wmp2.tmp
Input SCF Electron Density          ... HCl.scfp

One-Electron Terms    ...
                        ... One-Electron Terms done
Prescreening matrices              ... done

Batch handling in the gradient evaluation:
Memory available                      ... 3000.0 MB
Memory per occupied orbital in Q2     ...    0.2 MB
Memory per occupied orbital in Q3     ...    0.0 MB
Total memory requirement per |i>      ...    0.2 MB
Max. Number of orbitals possible      ...  15379
Number of orbitals treated per batch  ...     18
Number of batches to be done          ...      1
Batch   0: i=    0 ...    17

---------------------------------------
MP2 TOTAL ENERGY:     -460.324932528 Eh
---------------------------------------

-----------------------------------
NORM OF THE MP2 GRADIENT:  0.000000
-----------------------------------

-------------------------   --------------------
FINAL SINGLE POINT ENERGY      -460.324932528238
-------------------------   --------------------

                                *** OPTIMIZATION RUN DONE ***

                            ***************************************
                            *     ORCA property calculations      *
                            ***************************************

                                    ---------------------
                                    Active property flags
                                    ---------------------
   (+) Dipole Moment


------------------------------------------------------------------------------
                       ORCA ELECTRIC PROPERTIES CALCULATION
------------------------------------------------------------------------------

Dipole Moment Calculation                       ... on
Quadrupole Moment Calculation                   ... off
Polarizability Calculation                      ... off
GBWName                                         ... HCl.gbw
Electron density file                           ... HCl.scfp
The origin for moment calculation is the CENTER OF MASS  = ( 0.000000,  0.000000  0.001412)

-------------
DIPOLE MOMENT
-------------
                                X             Y             Z
Electronic contribution:      0.00000      -0.00000       0.69026
Nuclear contribution   :      0.00000       0.00000      -1.20960
                        -----------------------------------------
Total Dipole Moment    :      0.00000      -0.00000      -0.51933
                        -----------------------------------------
Magnitude (a.u.)       :      0.51933
Magnitude (Debye)      :      1.32004



--------------------
Rotational spectrum 
--------------------
 
Rotational constants in cm-1:     0.000000    10.594496    10.594496 
Rotational constants in MHz :     0.000000 317615.001498 317615.001498 

 Dipole components along the rotational axes: 
x,y,z [a.u.] :    -0.519332    -0.000000     0.000000 
x,y,z [Debye]:    -1.320038    -0.000000     0.000000 

 

                         *** MP2 UNRELAXED DENSITY ***

------------------------------------------------------------------------------
                       ORCA ELECTRIC PROPERTIES CALCULATION
------------------------------------------------------------------------------

Dipole Moment Calculation                       ... on
Quadrupole Moment Calculation                   ... off
Polarizability Calculation                      ... off
GBWName                                         ... HCl.gbw
Electron density file                           ... HCl.pmp2ur
The origin for moment calculation is the CENTER OF MASS  = ( 0.000000,  0.000000  0.001412)

-------------
DIPOLE MOMENT
-------------
                                X             Y             Z
Electronic contribution:      0.00000       0.00000       0.69025
Nuclear contribution   :      0.00000       0.00000      -1.20960
                        -----------------------------------------
Total Dipole Moment    :      0.00000       0.00000      -0.51935
                        -----------------------------------------
Magnitude (a.u.)       :      0.51935
Magnitude (Debye)      :      1.32008



--------------------
Rotational spectrum 
--------------------
 
Rotational constants in cm-1:     0.000000    10.594496    10.594496 
Rotational constants in MHz :     0.000000 317615.001498 317615.001498 

 Dipole components along the rotational axes: 
x,y,z [a.u.] :    -0.519348     0.000000     0.000000 
x,y,z [Debye]:    -1.320077     0.000000     0.000000 

 

                           *** MP2 RELAXED DENSITY ***

------------------------------------------------------------------------------
                       ORCA ELECTRIC PROPERTIES CALCULATION
------------------------------------------------------------------------------

Dipole Moment Calculation                       ... on
Quadrupole Moment Calculation                   ... off
Polarizability Calculation                      ... off
GBWName                                         ... HCl.gbw
Electron density file                           ... HCl.pmp2re
The origin for moment calculation is the CENTER OF MASS  = ( 0.000000,  0.000000  0.001412)

-------------
DIPOLE MOMENT
-------------
                                X             Y             Z
Electronic contribution:      0.00000       0.00000       0.69709
Nuclear contribution   :      0.00000       0.00000      -1.20960
                        -----------------------------------------
Total Dipole Moment    :      0.00000       0.00000      -0.51251
                        -----------------------------------------
Magnitude (a.u.)       :      0.51251
Magnitude (Debye)      :      1.30270



--------------------
Rotational spectrum 
--------------------
 
Rotational constants in cm-1:     0.000000    10.594496    10.594496 
Rotational constants in MHz :     0.000000 317615.001498 317615.001498 

 Dipole components along the rotational axes: 
x,y,z [a.u.] :    -0.512511     0.000000     0.000000 
x,y,z [Debye]:    -1.302698     0.000000     0.000000 

 
------------------------------------------------------------------------------
                         ORCA MP2 H E S S I A N CALCULATION
------------------------------------------------------------------------------

Calculating analytic MP2 second derivatives ... (>HCl.last_mp2) done
Warning: T+R mode no 5 is zero 

-----------------------
VIBRATIONAL FREQUENCIES
-----------------------

Scaling factor for frequencies =  1.000000000  (already applied!)

   0:         0.00 cm**-1
   1:         0.00 cm**-1
   2:         0.00 cm**-1
   3:         0.00 cm**-1
   4:         0.00 cm**-1
   5:      3035.68 cm**-1


------------
NORMAL MODES
------------

These modes are the Cartesian displacements weighted by the diagonal matrix
M(i,i)=1/sqrt(m[i]) where m[i] is the mass of the displaced atom
Thus, these vectors are normalized but *not* orthogonal

                  0          1          2          3          4          5    
      0       0.000000   0.000000   0.000000   0.000000   0.000000   0.000000
      1       0.000000   0.000000   0.000000   0.000000   0.000000   0.000000
      2       0.000000   0.000000   0.000000   0.000000   0.000000   0.028421
      3       0.000000   0.000000   0.000000   0.000000   0.000000   0.000000
      4       0.000000   0.000000   0.000000   0.000000   0.000000   0.000000
      5       0.000000   0.000000   0.000000   0.000000   0.000000  -0.999596


-----------
IR SPECTRUM
-----------

 Mode    freq (cm**-1)   T**2         TX         TY         TZ
-------------------------------------------------------------------
   5:      3035.68   54.808787  ( -0.000000   0.000000  -7.403296)

The first frequency considered to be a vibration is 5
The total number of vibrations considered is 1


--------------------------
THERMOCHEMISTRY AT 298.15K
--------------------------

Temperature         ... 298.15 K
Pressure            ... 1.00 atm
Total Mass          ... 36.46 AMU
The molecule is recognized as being linear

Throughout the following assumptions are being made:
  (1) The electronic state is orbitally nondegenerate
  (2) There are no thermally accessible electronically excited states
  (3) Hindered rotations indicated by low frequency modes are not
      treated as such but are treated as vibrations and this may
      cause some error
  (4) All equations used are the standard statistical mechanics
      equations for an ideal gas
  (5) All vibrations are strictly harmonic

freq.    3035.68  E(vib)   ...       0.00 

------------
INNER ENERGY
------------

The inner energy is: U= E(el) + E(ZPE) + E(vib) + E(rot) + E(trans)
    E(el)   - is the total energy from the electronic structure calculation
              = E(kin-el) + E(nuc-el) + E(el-el) + E(nuc-nuc)
    E(ZPE)  - the the zero temperature vibrational energy from the frequency calculation
    E(vib)  - the the finite temperature correction to E(ZPE) due to population
              of excited vibrational states
    E(rot)  - is the rotational thermal energy
    E(trans)- is the translational thermal energy

Summary of contributions to the inner energy U:
Electronic energy                ...   -460.32493253 Eh
Zero point energy                ...      0.00691579 Eh       4.34 kcal/mol
Thermal vibrational correction   ...      0.00000001 Eh       0.00 kcal/mol
Thermal rotational correction    ...      0.00094418 Eh       0.59 kcal/mol
Thermal translational correction ...      0.00141627 Eh       0.89 kcal/mol
-----------------------------------------------------------------------
Total thermal energy                   -460.31565628 Eh


Summary of corrections to the electronic energy:
(perhaps to be used in another calculation)
Total thermal correction                  0.00236046 Eh       1.48 kcal/mol
Non-thermal (ZPE) correction              0.00691579 Eh       4.34 kcal/mol
-----------------------------------------------------------------------
Total correction                          0.00927624 Eh       5.82 kcal/mol


--------
ENTHALPY
--------

The enthalpy is H = U + kB*T
                kB is Boltzmann's constant
Total free energy                 ...   -460.31565628 Eh 
Thermal Enthalpy correction       ...      0.00094421 Eh       0.59 kcal/mol
-----------------------------------------------------------------------
Total Enthalpy                    ...   -460.31471208 Eh


Note: Rotational entropy computed according to Herzberg 
Infrared and Raman Spectra, Chapter V,1, Van Nostrand Reinhold, 1945 
Point Group:  Cinfv, Symmetry Number:   1  
Rotational constants in cm-1:     0.000000    10.594496    10.594496 

Vibrational entropy computed according to the QRRHO of S. Grimme
Chem.Eur.J. 2012 18 9955


-------
ENTROPY
-------

The entropy contributions are T*S = T*(S(el)+S(vib)+S(rot)+S(trans))
     S(el)   - electronic entropy
     S(vib)  - vibrational entropy
     S(rot)  - rotational entropy
     S(trans)- translational entropy
The entropies will be listed as mutliplied by the temperature to get
units of energy

Electronic entropy                ...      0.00000000 Eh      0.00 kcal/mol
Vibrational entropy               ...      0.00000001 Eh      0.00 kcal/mol
Rotational entropy                ...      0.00375168 Eh      2.35 kcal/mol
Translational entropy             ...      0.01744233 Eh     10.95 kcal/mol
-----------------------------------------------------------------------
Final entropy term                ...      0.02119401 Eh     13.30 kcal/mol

In case the symmetry of your molecule has not been determined correctly
or in case you have a reason to use a different symmetry number we print 
out the resulting rotational entropy values for sn=1,12 :
 --------------------------------------------------------
|  sn= 1 | S(rot)=             -inf Eh      -inf kcal/mol|
|  sn= 2 | S(rot)=             -inf Eh      -inf kcal/mol|
|  sn= 3 | S(rot)=             -inf Eh      -inf kcal/mol|
|  sn= 4 | S(rot)=             -inf Eh      -inf kcal/mol|
|  sn= 5 | S(rot)=             -inf Eh      -inf kcal/mol|
|  sn= 6 | S(rot)=             -inf Eh      -inf kcal/mol|
|  sn= 7 | S(rot)=             -inf Eh      -inf kcal/mol|
|  sn= 8 | S(rot)=             -inf Eh      -inf kcal/mol|
|  sn= 9 | S(rot)=             -inf Eh      -inf kcal/mol|
|  sn=10 | S(rot)=             -inf Eh      -inf kcal/mol|
|  sn=11 | S(rot)=             -inf Eh      -inf kcal/mol|
|  sn=12 | S(rot)=             -inf Eh      -inf kcal/mol|
 --------------------------------------------------------


-------------------
GIBBS FREE ENERGY
-------------------

The Gibbs free energy is G = H - T*S

Total enthalpy                    ...   -460.31471208 Eh 
Total entropy correction          ...     -0.02119401 Eh    -13.30 kcal/mol
-----------------------------------------------------------------------
Final Gibbs free energy         ...   -460.33590609 Eh

For completeness - the Gibbs free energy minus the electronic energy
G-E(el)                           ...     -0.01097356 Eh     -6.89 kcal/mol


Timings for individual modules:

Sum of individual times         ...       32.581 sec (=   0.543 min)
GTO integral calculation        ...        2.907 sec (=   0.048 min)   8.9 %
SCF iterations                  ...        9.805 sec (=   0.163 min)  30.1 %
MP2 module                      ...       10.392 sec (=   0.173 min)  31.9 %
Geometry relaxation             ...        0.621 sec (=   0.010 min)   1.9 %
Analytical frequency calculation...        8.856 sec (=   0.148 min)  27.2 %
                             ****ORCA TERMINATED NORMALLY****
TOTAL RUN TIME: 0 days 0 hours 0 minutes 33 seconds 298 msec
