
                                 *****************
                                 * O   R   C   A *
                                 *****************

           --- An Ab Initio, DFT and Semiempirical electronic structure package ---

                  #######################################################
                  #                        -***-                        #
                  #          Department of theory and spectroscopy      #
                  #               Directorship: Frank Neese             #
                  #        Max Planck Institute fuer Kohlenforschung    #
                  #                Kaiser Wilhelm Platz 1               #
                  #                 D-45470 Muelheim/Ruhr               #
                  #                      Germany                        #
                  #                                                     #
                  #                  All rights reserved                #
                  #                        -***-                        #
                  #######################################################


                         Program Version 4.2.1 -  RELEASE  -


 With contributions from (in alphabetic order):
   Daniel Aravena         : Magnetic Suceptibility
   Michael Atanasov       : Ab Initio Ligand Field Theory (pilot matlab implementation)
   Alexander A. Auer      : GIAO ZORA, VPT2
   Ute Becker             : Parallelization
   Giovanni Bistoni       : ED, misc. LED, open-shell LED, HFLD
   Martin Brehm           : Molecular dynamics
   Dmytro Bykov           : SCF Hessian
   Vijay G. Chilkuri      : MRCI spin determinant printing, contributions to CSF-ICE
   Dipayan Datta          : RHF DLPNO-CCSD density
   Achintya Kumar Dutta   : EOM-CC, STEOM-CC
   Dmitry Ganyushin       : Spin-Orbit,Spin-Spin,Magnetic field MRCI
   Miquel Garcia          : C-PCM Hessian, Gaussian charge scheme
   Yang Guo               : DLPNO-NEVPT2, CIM, IAO-localization
   Andreas Hansen         : Spin unrestricted coupled pair/coupled cluster methods
   Benjamin Helmich-Paris : CASSCF linear response (MC-RPA)
   Lee Huntington         : MR-EOM, pCC
   Robert Izsak           : Overlap fitted RIJCOSX, COSX-SCS-MP3, EOM
   Christian Kollmar      : KDIIS, OOCD, Brueckner-CCSD(T), CCSD density
   Simone Kossmann        : Meta GGA functionals, TD-DFT gradient, OOMP2, MP2 Hessian
   Martin Krupicka        : AUTO-CI
   Lucas Lang             : DCDCAS
   Dagmar Lenk            : GEPOL surface, SMD
   Dimitrios Liakos       : Extrapolation schemes; Compound Job, initial MDCI parallelization
   Dimitrios Manganas     : Further ROCIS development; embedding schemes
   Dimitrios Pantazis     : SARC Basis sets
   Taras Petrenko         : DFT Hessian,TD-DFT gradient, ASA, ECA, R-Raman, ABS, FL, XAS/XES, NRVS
   Peter Pinski           : DLPNO-MP2, DLPNO-MP2 Gradient
   Christoph Reimann      : Effective Core Potentials
   Marius Retegan         : Local ZFS, SOC
   Christoph Riplinger    : Optimizer, TS searches, QM/MM, DLPNO-CCSD(T), (RO)-DLPNO pert. Triples
   Tobias Risthaus        : Range-separated hybrids, TD-DFT gradient, RPA, STAB
   Michael Roemelt        : Original ROCIS implementation
   Masaaki Saitow         : Open-shell DLPNO-CCSD energy and density
   Barbara Sandhoefer     : DKH picture change effects
   Avijit Sen             : IP-ROCIS
   Kantharuban Sivalingam : CASSCF convergence, NEVPT2, FIC-MRCI
   Bernardo de Souza      : ESD, SOC TD-DFT
   Georgi Stoychev        : AutoAux, RI-MP2 NMR
   Willem Van den Heuvel  : Paramagnetic NMR
   Boris Wezisla          : Elementary symmetry handling
   Frank Wennmohs         : Technical directorship


 We gratefully acknowledge several colleagues who have allowed us to
 interface, adapt or use parts of their codes:
   Stefan Grimme, W. Hujo, H. Kruse,             : VdW corrections, initial TS optimization,
                  C. Bannwarth                     DFT functionals, gCP, sTDA/sTD-DF
   Ed Valeev, F. Pavosevic, A. Kumar             : LibInt (2-el integral package), F12 methods
   Garnet Chan, S. Sharma, J. Yang, R. Olivares  : DMRG
   Ulf Ekstrom                                   : XCFun DFT Library
   Mihaly Kallay                                 : mrcc  (arbitrary order and MRCC methods)
   Andreas Klamt, Michael Diedenhofen            : otool_cosmo (COSMO solvation model)
   Jiri Pittner, Ondrej Demel                    : Mk-CCSD
   Frank Weinhold                                : gennbo (NPA and NBO analysis)
   Christopher J. Cramer and Donald G. Truhlar   : smd solvation model
   Lars Goerigk                                  : TD-DFT with DH, B97 family of functionals
   V. Asgeirsson, H. Jonsson                     : NEB implementation
   FAccTs GmbH                                   : IRC, NEB, NEB-TS, Multilevel, MM, QM/MM, CI optimization
   S Lehtola, MJT Oliveira, MAL Marques          : LibXC Library


 Your calculation uses the libint2 library for the computation of 2-el integrals
 For citations please refer to: http://libint.valeyev.net

 Your ORCA version has been built with support for libXC version: 4.2.3
 For citations please refer to: https://tddft.org/programs/libxc/

 This ORCA versions uses:
   CBLAS   interface :  Fast vector & matrix operations
   LAPACKE interface :  Fast linear algebra routines
   SCALAPACK package :  Parallel linear algebra routines


----- Orbital basis set information -----
Your calculation utilizes the basis: 6-311G(2d,p)
   H, Li - Ne  : R. Krishnan, J. S. Binkley, R. Seeger and J. A. Pople, J. Chem. Phys. 72, 650 (1980).
   Na - Ar     : A. D. McLean and G. S. Chandler J. Chem. Phys. 72, 5639, (1980).
   K  - Ca     : J.-P. Blaudeau, M. P. McGrath, L. A. Curtiss and L. Radom, J. Chem. Phys. 107, 5016 (1997).
   Ga - Kr     : L. A. Curtiss, M. P. McGrath, J.-P. Blandeau, N. E. Davis, R. C. Binning and L. Radom, J. Chem. Phys. 103, 6104 (1995).
   Pol./Diff.
   H, Li - Cl  : T. Clark, J. Chandrasekhar and P. v. R. Schleyer, J. Comp. Chem. 4, 294 (1983).
   H - Ne      : M. J. Frisch, J. A. Pople and J. S. Binkley, J. Chem. Phys. 80, 3265 (1984).

================================================================================
                                        WARNINGS
                       Please study these warnings very carefully!
================================================================================


WARNING: Geometry Optimization
  ===> : Switching off AutoStart
         For restart on a previous wavefunction, please use MOREAD

WARNING: Post HF methods need fully converged wavefunctions
  ===> : Setting SCFConvForced true
         You can overwrite this default with %scf ConvForced false 


INFO   : the flag for use of LIBINT has been found!

================================================================================
                                       INPUT FILE
================================================================================
NAME = methane.inp
|  1> ! UHF MP2 6-311G(2d,p) Opt Freq NoFrozenCore TightOpt TightSCF Grid4 FinalGrid5 PrintBasis PrintMOs NBO
|  2> %maxcore 3000
|  3> 
|  4> *xyz 0 1
|  5> C        0.000000000      0.000000000      0.000000000
|  6> H       -0.625911000     -0.625911000      0.625911000
|  7> H        0.625911000     -0.625911000     -0.625911000
|  8> H       -0.625911000      0.625911000     -0.625911000
|  9> H        0.625911000      0.625911000      0.625911000
| 10> *
| 11> 
| 12> %pal
| 13>  nprocs 12
| 14> end
| 15> 
| 16>                          ****END OF INPUT****
================================================================================

                       *****************************
                       * Geometry Optimization Run *
                       *****************************

Geometry optimization settings:
Update method            Update   .... BFGS
Choice of coordinates    CoordSys .... Z-matrix Internals
Initial Hessian          InHess   .... Almoef's Model

Convergence Tolerances:
Energy Change            TolE     ....  1.0000e-06 Eh
Max. Gradient            TolMAXG  ....  1.0000e-04 Eh/bohr
RMS Gradient             TolRMSG  ....  3.0000e-05 Eh/bohr
Max. Displacement        TolMAXD  ....  1.0000e-03 bohr
RMS Displacement         TolRMSD  ....  6.0000e-04 bohr
Strict Convergence                ....  False
------------------------------------------------------------------------------
                        ORCA OPTIMIZATION COORDINATE SETUP
------------------------------------------------------------------------------

The optimization will be done in new redundant internal coordinates
Making redundant internal coordinates   ...  (new redundants) done
Evaluating the initial hessian          ...  (Almloef) done
Evaluating the coordinates              ...  done
Calculating the B-matrix                .... done
Calculating the G-matrix                .... done
Diagonalizing the G-matrix              .... done
The first mode is                       ....    1
The number of degrees of freedom        ....    9

    -----------------------------------------------------------------
                    Redundant Internal Coordinates


    -----------------------------------------------------------------
         Definition                    Initial Value    Approx d2E/dq
    -----------------------------------------------------------------
      1. B(H   1,C   0)                  1.0841         0.367977   
      2. B(H   2,C   0)                  1.0841         0.367977   
      3. B(H   3,C   0)                  1.0841         0.367977   
      4. B(H   4,C   0)                  1.0841         0.367977   
      5. A(H   1,C   0,H   3)          109.4712         0.292826   
      6. A(H   2,C   0,H   3)          109.4712         0.292826   
      7. A(H   1,C   0,H   4)          109.4712         0.292826   
      8. A(H   2,C   0,H   4)          109.4712         0.292826   
      9. A(H   3,C   0,H   4)          109.4712         0.292826   
     10. A(H   1,C   0,H   2)          109.4712         0.292826   
    -----------------------------------------------------------------

Number of atoms                         .... 5
Number of degrees of freedom            .... 10

         *************************************************************
         *                GEOMETRY OPTIMIZATION CYCLE   1            *
         *************************************************************
---------------------------------
CARTESIAN COORDINATES (ANGSTROEM)
---------------------------------
  C      0.000000    0.000000    0.000000
  H     -0.625911   -0.625911    0.625911
  H      0.625911   -0.625911   -0.625911
  H     -0.625911    0.625911   -0.625911
  H      0.625911    0.625911    0.625911

----------------------------
CARTESIAN COORDINATES (A.U.)
----------------------------
  NO LB      ZA    FRAG     MASS         X           Y           Z
   0 C     6.0000    0    12.011    0.000000    0.000000    0.000000
   1 H     1.0000    0     1.008   -1.182800   -1.182800    1.182800
   2 H     1.0000    0     1.008    1.182800   -1.182800   -1.182800
   3 H     1.0000    0     1.008   -1.182800    1.182800   -1.182800
   4 H     1.0000    0     1.008    1.182800    1.182800    1.182800

--------------------------------
INTERNAL COORDINATES (ANGSTROEM)
--------------------------------
 C      0   0   0     0.000000000000     0.00000000     0.00000000
 H      1   0   0     1.084109653016     0.00000000     0.00000000
 H      1   2   0     1.084109653016   109.47122063     0.00000000
 H      1   2   3     1.084109653016   109.47122063   120.00000000
 H      1   2   3     1.084109653016   109.47122063   240.00000000

---------------------------
INTERNAL COORDINATES (A.U.)
---------------------------
 C      0   0   0     0.000000000000     0.00000000     0.00000000
 H      1   0   0     2.048670343341     0.00000000     0.00000000
 H      1   2   0     2.048670343341   109.47122063     0.00000000
 H      1   2   3     2.048670343341   109.47122063   120.00000000
 H      1   2   3     2.048670343341   109.47122063   240.00000000

---------------------
BASIS SET INFORMATION
---------------------
There are 2 groups of distinct atoms

 Group   1 Type C   : 11s5p2d contracted to 4s3p2d pattern {6311/311/11}
 Group   2 Type H   : 5s1p contracted to 3s1p pattern {311/1}

Atom   0C    basis set group =>   1
Atom   1H    basis set group =>   2
Atom   2H    basis set group =>   2
Atom   3H    basis set group =>   2
Atom   4H    basis set group =>   2

-------------------------
BASIS SET IN INPUT FORMAT
-------------------------

 # Basis set for element : H 
 NewGTO H 
 S 3 
   1      33.8650000000      0.0254938145
   2       5.0947900000      0.1903731086
   3       1.1587900000      0.8521614860
 S 1 
   1       0.3258400000      1.0000000000
 S 1 
   1       0.1027410000      1.0000000000
 P 1 
   1       0.7500000000      1.0000000000
  end;

 # Basis set for element : C 
 NewGTO C 
 S 6 
   1    4563.2400000000      0.0019666502
   2     682.0240000000      0.0152306019
   3     154.9730000000      0.0761269097
   4      44.4553000000      0.2608010331
   5      13.0290000000      0.6164620782
   6       1.8277300000      0.2210060280
 S 3 
   1      20.9642000000      0.1146600807
   2       4.8033100000      0.9199996477
   3       1.4593300000     -0.0030306821
 P 3 
   1      20.9642000000      0.0402486927
   2       4.8033100000      0.2375939567
   3       1.4593300000      0.8158538515
 S 1 
   1       0.4834560000      1.0000000000
 P 1 
   1       0.4834560000      1.0000000000
 S 1 
   1       0.1455850000      1.0000000000
 P 1 
   1       0.1455850000      1.0000000000
 D 1 
   1       1.2520000000      1.0000000000
 D 1 
   1       0.3130000000      1.0000000000
  end;



           ************************************************************
           *        Program running with 12 parallel MPI-processes    *
           *              working on a common directory               *
           ************************************************************
------------------------------------------------------------------------------
                           ORCA GTO INTEGRAL CALCULATION
------------------------------------------------------------------------------

                         BASIS SET STATISTICS AND STARTUP INFO

 # of primitive gaussian shells          ...   42
 # of primitive gaussian functions       ...   68
 # of contracted shells                  ...   25
 # of contracted basis functions         ...   47
 Highest angular momentum                ...    2
 Maximum contraction depth               ...    6
 Integral package used                   ... LIBINT
 Integral threshhold            Thresh   ...  2.500e-11
 Primitive cut-off              TCut     ...  2.500e-12


------------------------------ INTEGRAL EVALUATION ----------------------------


 * One electron integrals 
 Pre-screening matrix                    ... done
 Shell pair data                         ... done (   0.000 sec)



           ************************************************************
           *        Program running with 12 parallel MPI-processes    *
           *              working on a common directory               *
           ************************************************************
-------------------------------------------------------------------------------
                                 ORCA SCF
-------------------------------------------------------------------------------

------------
SCF SETTINGS
------------
Hamiltonian:
 Ab initio Hamiltonian  Method          .... Hartree-Fock(GTOs)


General Settings:
 Integral files         IntName         .... methane
 Hartree-Fock type      HFTyp           .... UHF
 Total Charge           Charge          ....    0
 Multiplicity           Mult            ....    1
 Number of Electrons    NEL             ....   10
 Basis Dimension        Dim             ....   47
 Nuclear Repulsion      ENuc            ....     13.5083883574 Eh

Convergence Acceleration:
 DIIS                   CNVDIIS         .... on
   Start iteration      DIISMaxIt       ....    12
   Startup error        DIISStart       ....  0.200000
   # of expansion vecs  DIISMaxEq       ....     5
   Bias factor          DIISBfac        ....   1.050
   Max. coefficient     DIISMaxC        ....  10.000
 Newton-Raphson         CNVNR           .... off
 SOSCF                  CNVSOSCF        .... off
 Level Shifting         CNVShift        .... on
   Level shift para.    LevelShift      ....    0.2500
   Turn off err/grad.   ShiftErr        ....    0.0010
 Zerner damping         CNVZerner       .... off
 Static damping         CNVDamp         .... on
   Fraction old density DampFac         ....    0.7000
   Max. Damping (<1)    DampMax         ....    0.9800
   Min. Damping (>=0)   DampMin         ....    0.0000
   Turn off err/grad.   DampErr         ....    0.1000
 Fernandez-Rico         CNVRico         .... off

SCF Procedure:
 Maximum # iterations   MaxIter         ....   125
 SCF integral mode      SCFMode         .... Direct
   Integral package                     .... LIBINT
 Reset frequency        DirectResetFreq ....    20
 Integral Threshold     Thresh          ....  2.500e-11 Eh
 Primitive CutOff       TCut            ....  2.500e-12 Eh

Convergence Tolerance:
 Convergence Check Mode ConvCheckMode   .... Total+1el-Energy
 Convergence forced     ConvForced      .... 1
 Energy Change          TolE            ....  1.000e-08 Eh
 1-El. energy change                    ....  1.000e-05 Eh
 DIIS Error             TolErr          ....  5.000e-07


Diagonalization of the overlap matrix:
Smallest eigenvalue                        ... 1.247e-02
Time for diagonalization                   ...    0.001 sec
Threshold for overlap eigenvalues          ... 1.000e-08
Number of eigenvalues below threshold      ... 0
Time for construction of square roots      ...    0.011 sec
Total time needed                          ...    0.012 sec

-------------------
DFT GRID GENERATION
-------------------

General Integration Accuracy     IntAcc      ...  4.670
Radial Grid Type                 RadialGrid  ... Gauss-Chebyshev
Angular Grid (max. acc.)         AngularGrid ... Lebedev-302
Angular grid pruning method      GridPruning ... 3 (G Style)
Weight generation scheme         WeightScheme... Becke
Basis function cutoff            BFCut       ...    1.0000e-11
Integration weight cutoff        WCut        ...    1.0000e-14
Grids for H and He will be reduced by one unit

# of grid points (after initial pruning)     ...  19788 (   0.0 sec)
# of grid points (after weights+screening)   ...  19276 (   0.0 sec)
nearest neighbour list constructed           ...    0.0 sec
Grid point re-assignment to atoms done       ...    0.0 sec
Grid point division into batches done        ...    0.1 sec
Reduced shell lists constructed in    0.1 sec

Total number of grid points                  ...    19276
Total number of batches                      ...      303
Average number of points per batch           ...       63
Average number of grid points per atom       ...     3855
Average number of shells per batch           ...    24.07 (96.30%)
Average number of basis functions per batch  ...    45.26 (96.30%)
Average number of large shells per batch     ...    24.07 (100.00%)
Average number of large basis fcns per batch ...    45.26 (100.00%)
Maximum spatial batch extension              ...   1.44,  1.38,  1.38 au
Average spatial batch extension              ...   0.09,  0.09,  0.09 au

Time for grid setup =    0.133 sec

------------------------------
INITIAL GUESS: MODEL POTENTIAL
------------------------------
Loading Hartree-Fock densities                     ... done
Calculating cut-offs                               ... done
Setting up the integral package                    ... done
Initializing the effective Hamiltonian             ... done
Starting the Coulomb interaction                   ... done (   0.0 sec)
Reading the grid                                   ... done
Mapping shells                                     ... done
Starting the XC term evaluation                    ... done (   0.0 sec)
Transforming the Hamiltonian                       ... done (   0.0 sec)
Diagonalizing the Hamiltonian                      ... done (   0.0 sec)
Back transforming the eigenvectors                 ... done (   0.0 sec)
Now organizing SCF variables                       ... done
                      ------------------
                      INITIAL GUESS DONE (   0.3 sec)
                      ------------------
--------------
SCF ITERATIONS
--------------
ITER       Energy         Delta-E        Max-DP      RMS-DP      [F,P]     Damp
               ***  Starting incremental Fock matrix formation  ***
  0    -40.0953139439   0.000000000000 0.03150247  0.00106871  0.3111696 0.7000
  1    -40.1371239694  -0.041810025425 0.02178819  0.00081175  0.1989789 0.7000
                               ***Turning on DIIS***
  2    -40.1620012830  -0.024877313601 0.01256804  0.00051228  0.1166749 0.7000
  3    -40.3433578099  -0.181356526912 0.01568195  0.00090550  0.0666871 0.0000
  4    -40.1847159224   0.158641887437 0.00459613  0.00016652  0.0108608 0.0000
  5    -40.2083754498  -0.023659527337 0.00098830  0.00006917  0.0029774 0.0000
  6    -40.2100118015  -0.001636351714 0.00039862  0.00003069  0.0010117 0.0000
  7    -40.2102867465  -0.000274945060 0.00018102  0.00001401  0.0002668 0.0000
  8    -40.2102553214   0.000031425102 0.00002020  0.00000165  0.0000151 0.0000
                            ***DIIS convergence achieved***

               *****************************************************
               *                     SUCCESS                       *
               *           SCF CONVERGED AFTER   9 CYCLES          *
               *****************************************************


----------------
TOTAL SCF ENERGY
----------------

Total Energy       :          -40.21023531 Eh           -1094.17613 eV

Components:
Nuclear Repulsion  :           13.50838836 Eh             367.58193 eV
Electronic Energy  :          -53.71862367 Eh           -1461.75806 eV
One Electron Energy:          -79.86126551 Eh           -2173.13551 eV
Two Electron Energy:           26.14264184 Eh             711.37745 eV

Virial components:
Potential Energy   :          -80.40481472 Eh           -2187.92624 eV
Kinetic Energy     :           40.19457941 Eh            1093.75011 eV
Virial Ratio       :            2.00038950


---------------
SCF CONVERGENCE
---------------

  Last Energy change         ...    2.0013e-05  Tolerance :   1.0000e-08
  Last MAX-Density change    ...    2.5929e-06  Tolerance :   1.0000e-07
  Last RMS-Density change    ...    2.2425e-07  Tolerance :   5.0000e-09
  Last DIIS Error            ...    9.9488e-07  Tolerance :   5.0000e-07

             **** THE GBW FILE WAS UPDATED (methane.gbw) ****
             **** DENSITY FILE WAS UPDATED (methane.scfp) ****
             **** ENERGY FILE WAS UPDATED (methane.en.tmp) ****
----------------------
UHF SPIN CONTAMINATION
----------------------

Expectation value of <S**2>     :     0.000000
Ideal value S*(S+1) for S=0.0   :     0.000000
Deviation                       :     0.000000

             **** THE GBW FILE WAS UPDATED (methane.gbw) ****
             **** DENSITY FILE WAS UPDATED (methane.scfp) ****
----------------
ORBITAL ENERGIES
----------------
                 SPIN UP ORBITALS
  NO   OCC          E(Eh)            E(eV) 
   0   1.0000     -11.204120      -304.8796 
   1   1.0000      -0.944876       -25.7114 
   2   1.0000      -0.546331       -14.8664 
   3   1.0000      -0.546331       -14.8664 
   4   1.0000      -0.546331       -14.8664 
   5   0.0000       0.162403         4.4192 
   6   0.0000       0.237986         6.4759 
   7   0.0000       0.237986         6.4759 
   8   0.0000       0.237986         6.4759 
   9   0.0000       0.421499        11.4696 
  10   0.0000       0.421499        11.4696 
  11   0.0000       0.421499        11.4696 
  12   0.0000       0.759413        20.6647 
  13   0.0000       0.776803        21.1379 
  14   0.0000       0.776803        21.1379 
  15   0.0000       0.792872        21.5751 
  16   0.0000       0.792872        21.5751 
  17   0.0000       0.792872        21.5751 
  18   0.0000       0.935563        25.4580 
  19   0.0000       1.193250        32.4700 
  20   0.0000       1.193250        32.4700 
  21   0.0000       1.193250        32.4700 
  22   0.0000       1.728386        47.0318 
  23   0.0000       1.728386        47.0318 
  24   0.0000       1.728386        47.0318 
  25   0.0000       2.103296        57.2336 
  26   0.0000       2.103296        57.2336 
  27   0.0000       2.103296        57.2336 
  28   0.0000       2.473903        67.3183 
  29   0.0000       2.473903        67.3183 
  30   0.0000       2.473903        67.3183 
  31   0.0000       2.531337        68.8812 
  32   0.0000       2.596337        70.6499 
  33   0.0000       2.596337        70.6499 
  34   0.0000       2.820735        76.7561 
  35   0.0000       2.820735        76.7561 
  36   0.0000       2.820735        76.7561 
  37   0.0000       3.190920        86.8293 
  38   0.0000       3.517966        95.7287 
  39   0.0000       3.517966        95.7287 
  40   0.0000       3.517966        95.7287 
  41   0.0000       3.621529        98.5468 
  42   0.0000       3.621529        98.5468 
  43   0.0000       4.608457       125.4025 
  44   0.0000       4.608457       125.4025 
  45   0.0000       4.608457       125.4025 
  46   0.0000      25.177163       685.1054 

                 SPIN DOWN ORBITALS
  NO   OCC          E(Eh)            E(eV) 
   0   1.0000     -11.204120      -304.8796 
   1   1.0000      -0.944876       -25.7114 
   2   1.0000      -0.546331       -14.8664 
   3   1.0000      -0.546331       -14.8664 
   4   1.0000      -0.546331       -14.8664 
   5   0.0000       0.162403         4.4192 
   6   0.0000       0.237986         6.4759 
   7   0.0000       0.237986         6.4759 
   8   0.0000       0.237986         6.4759 
   9   0.0000       0.421499        11.4696 
  10   0.0000       0.421499        11.4696 
  11   0.0000       0.421499        11.4696 
  12   0.0000       0.759413        20.6647 
  13   0.0000       0.776803        21.1379 
  14   0.0000       0.776803        21.1379 
  15   0.0000       0.792872        21.5751 
  16   0.0000       0.792872        21.5751 
  17   0.0000       0.792872        21.5751 
  18   0.0000       0.935563        25.4580 
  19   0.0000       1.193250        32.4700 
  20   0.0000       1.193250        32.4700 
  21   0.0000       1.193250        32.4700 
  22   0.0000       1.728386        47.0318 
  23   0.0000       1.728386        47.0318 
  24   0.0000       1.728386        47.0318 
  25   0.0000       2.103296        57.2336 
  26   0.0000       2.103296        57.2336 
  27   0.0000       2.103296        57.2336 
  28   0.0000       2.473903        67.3183 
  29   0.0000       2.473903        67.3183 
  30   0.0000       2.473903        67.3183 
  31   0.0000       2.531337        68.8812 
  32   0.0000       2.596337        70.6499 
  33   0.0000       2.596337        70.6499 
  34   0.0000       2.820735        76.7561 
  35   0.0000       2.820735        76.7561 
  36   0.0000       2.820735        76.7561 
  37   0.0000       3.190920        86.8293 
  38   0.0000       3.517966        95.7287 
  39   0.0000       3.517966        95.7287 
  40   0.0000       3.517966        95.7287 
  41   0.0000       3.621529        98.5468 
  42   0.0000       3.621529        98.5468 
  43   0.0000       4.608457       125.4025 
  44   0.0000       4.608457       125.4025 
  45   0.0000       4.608457       125.4025 
  46   0.0000      25.177163       685.1054 
------------------
MOLECULAR ORBITALS
------------------
                      0         1         2         3         4         5   
                 -11.20412  -0.94488  -0.54633  -0.54633  -0.54633   0.16240
                   1.00000   1.00000   1.00000   1.00000   1.00000   0.00000
                  --------  --------  --------  --------  --------  --------
  0C   1s         0.563299 -0.102989 -0.000000 -0.000000  0.000000 -0.048544
  0C   2s         0.466540 -0.169607  0.000000 -0.000000  0.000000 -0.077865
  0C   1pz       -0.000000 -0.000000 -0.062380  0.076302  0.163472  0.000000
  0C   1px       -0.000000 -0.000000  0.176558  0.061340  0.038742  0.000000
  0C   1py       -0.000000  0.000000  0.037045 -0.163865  0.090621 -0.000000
  0C   3s         0.004539  0.422938  0.000000  0.000000 -0.000000  0.063257
  0C   2pz        0.000000  0.000000 -0.094290  0.115334  0.247096 -0.000000
  0C   2px        0.000000 -0.000000  0.266877  0.092718  0.058561  0.000000
  0C   2py        0.000000 -0.000000  0.055995 -0.247690  0.136979 -0.000000
  0C   4s        -0.001109  0.261447 -0.000000 -0.000000  0.000000  2.171768
  0C   3pz       -0.000000 -0.000000 -0.066333  0.081138  0.173832 -0.000000
  0C   3px        0.000000 -0.000000  0.187747  0.065227  0.041198  0.000000
  0C   3py       -0.000000 -0.000000  0.039392 -0.174250  0.096365 -0.000000
  0C   1dz2      -0.000000 -0.000000  0.000000  0.000000 -0.000000 -0.000000
  0C   1dxz      -0.000000 -0.000000  0.003445 -0.015240  0.008428 -0.000000
  0C   1dyz       0.000000  0.000000  0.016420  0.005705  0.003603 -0.000000
  0C   1dx2y2    -0.000000 -0.000000 -0.000000  0.000000 -0.000000 -0.000000
  0C   1dxy      -0.000000  0.000000 -0.005801  0.007096  0.015203 -0.000000
  0C   2dz2       0.000000 -0.000000  0.000000 -0.000000  0.000000 -0.000000
  0C   2dxz      -0.000000 -0.000000  0.003490 -0.015436  0.008536 -0.000000
  0C   2dyz       0.000000 -0.000000  0.016631  0.005778  0.003649  0.000000
  0C   2dx2y2     0.000000  0.000000 -0.000000 -0.000000  0.000000  0.000000
  0C   2dxy       0.000000  0.000000 -0.005876  0.007187  0.015399 -0.000000
  1H   1s         0.000376  0.083901 -0.147409  0.095516  0.018218 -0.008311
  1H   2s         0.000063  0.113317 -0.228394  0.147992  0.028227  0.006053
  1H   3s         0.000219  0.007491 -0.091962  0.059588  0.011365 -0.786313
  1H   1pz        0.000004 -0.011263  0.013838 -0.006948  0.007051  0.001292
  1H   1px       -0.000004  0.011263 -0.007416  0.014690  0.004323 -0.001292
  1H   1py       -0.000004  0.011263 -0.015262  0.002023  0.007241 -0.001292
  2H   1s         0.000376  0.083901  0.107836  0.079532 -0.115024 -0.008311
  2H   2s         0.000063  0.113317  0.167080  0.123227 -0.178218  0.006053
  2H   3s         0.000219  0.007491  0.067274  0.049617 -0.071759 -0.786313
  2H   1pz       -0.000004  0.011263  0.009181  0.013650 -0.004341 -0.001292
  2H   1px        0.000004 -0.011263 -0.002759 -0.005909  0.015714  0.001292
  2H   1py       -0.000004  0.011263  0.014773  0.000142 -0.008438 -0.001292
  3H   1s         0.000376  0.083901 -0.041199 -0.161042 -0.059604 -0.008311
  3H   2s         0.000063  0.113317 -0.063833 -0.249517 -0.092351  0.006053
  3H   3s         0.000219  0.007491 -0.025702 -0.100468 -0.037185 -0.786313
  3H   1pz       -0.000004  0.011263 -0.008356 -0.014659  0.002180 -0.001292
  3H   1px       -0.000004  0.011263  0.005082 -0.015500 -0.004835 -0.001292
  3H   1py        0.000004 -0.011263  0.006932  0.009734  0.012111  0.001292
  4H   1s         0.000376  0.083901  0.080772 -0.014006  0.156410 -0.008311
  4H   2s         0.000063  0.113317  0.125147 -0.021701  0.242342  0.006053
  4H   3s         0.000219  0.007491  0.050390 -0.008738  0.097578 -0.786313
  4H   1pz        0.000004 -0.011263 -0.013013  0.005940 -0.009211  0.001292
  4H   1px        0.000004 -0.011263  0.000426  0.005098 -0.016226  0.001292
  4H   1py        0.000004 -0.011263 -0.007421 -0.007568 -0.013308  0.001292
                      6         7         8         9        10        11   
                   0.23799   0.23799   0.23799   0.42150   0.42150   0.42150
                   0.00000   0.00000   0.00000   0.00000   0.00000   0.00000
                  --------  --------  --------  --------  --------  --------
  0C   1s        -0.000000 -0.000000 -0.000000 -0.000000 -0.000000  0.000000
  0C   2s         0.000000 -0.000000 -0.000000 -0.000000 -0.000000  0.000000
  0C   1pz        0.111132 -0.011666 -0.072592 -0.002939  0.003392  0.002840
  0C   1px       -0.072420 -0.040079 -0.104428  0.002503 -0.001538  0.004426
  0C   1py       -0.012692  0.126545 -0.039767 -0.003649 -0.003787  0.000748
  0C   3s        -0.000000  0.000000  0.000000  0.000000 -0.000000 -0.000000
  0C   2pz        0.074722 -0.007844 -0.048809  0.045168 -0.052134 -0.043651
  0C   2px       -0.048693 -0.026948 -0.070214 -0.038459  0.023629 -0.068015
  0C   2py       -0.008533  0.085085 -0.026738  0.056074  0.058200 -0.011488
  0C   4s        -0.000000 -0.000000 -0.000000 -0.000000  0.000000  0.000000
  0C   3pz        0.977388 -0.102602 -0.638434  1.002536 -1.157157 -0.968881
  0C   3px       -0.636919 -0.352491 -0.918420 -0.853637  0.524456 -1.509659
  0C   3py       -0.111620  1.112940 -0.349740  1.244607  1.291803 -0.254990
  0C   1dz2      -0.000000 -0.000000  0.000000 -0.000000 -0.000000  0.000000
  0C   1dxz       0.000973 -0.009702  0.003049 -0.015689 -0.016284  0.003214
  0C   1dyz       0.005552  0.003073  0.008006  0.010760 -0.006611  0.019030
  0C   1dx2y2     0.000000 -0.000000 -0.000000 -0.000000  0.000000  0.000000
  0C   1dxy      -0.008520  0.000894  0.005565 -0.012637  0.014586  0.012213
  0C   2dz2      -0.000000  0.000000 -0.000000  0.000000 -0.000000 -0.000000
  0C   2dxz      -0.001128  0.011252 -0.003536  0.160028  0.166096 -0.032786
  0C   2dyz      -0.006439 -0.003564 -0.009285 -0.109758  0.067433 -0.194107
  0C   2dx2y2    -0.000000 -0.000000 -0.000000  0.000000 -0.000000 -0.000000
  0C   2dxy       0.009881 -0.001037 -0.006454  0.128903 -0.148784 -0.124576
  1H   1s        -0.017781  0.008892 -0.006488 -0.012623  0.061371 -0.016425
  1H   2s         0.130161 -0.065087  0.047491 -0.319548  1.553636 -0.415796
  1H   3s        -2.018257  1.009231 -0.736386 -0.007388  0.035921 -0.009613
  1H   1pz       -0.008293  0.005848 -0.007408  0.016753 -0.053876  0.004934
  1H   1px        0.009793 -0.007852  0.000552 -0.015648  0.049183 -0.023321
  1H   1py        0.012106 -0.001398  0.003056 -0.000083  0.054875 -0.014013
  2H   1s         0.015481  0.014041 -0.000719  0.064000 -0.008046  0.005899
  2H   2s        -0.113325 -0.102778  0.005260  1.620184 -0.203679  0.149327
  2H   3s         1.757206  1.593658 -0.081568  0.037460 -0.004709  0.003453
  2H   1pz       -0.006664 -0.010399 -0.002302  0.054669 -0.014522 -0.002834
  2H   1px        0.008163  0.008395 -0.004554 -0.053565  0.009828 -0.015552
  2H   1py       -0.011460 -0.005046 -0.001031  0.056465  0.003645  0.002462
  3H   1s         0.004658 -0.016155 -0.012436 -0.022615 -0.039722 -0.045894
  3H   2s        -0.034094  0.118253  0.091035 -0.572517 -1.005570 -1.161824
  3H   3s         0.528661 -1.833619 -1.411571 -0.013237 -0.023249 -0.026862
  3H   1pz        0.001004  0.010993  0.005999 -0.009253 -0.037899 -0.041057
  3H   1px       -0.006105  0.009893  0.004766 -0.023023 -0.025424 -0.045069
  3H   1py        0.002808 -0.006544 -0.010351  0.025923  0.038898  0.031978
  4H   1s        -0.002358 -0.006777  0.019643 -0.028762 -0.013604  0.056420
  4H   2s         0.017259  0.049612 -0.143786 -0.728119 -0.344386  1.428293
  4H   3s        -0.267610 -0.769271  2.229525 -0.016835 -0.007962  0.033023
  4H   1pz        0.002634 -0.005253  0.011105  0.028664  0.001456 -0.048826
  4H   1px       -0.004475 -0.006354  0.009872  0.014894  0.013930 -0.052837
  4H   1py       -0.002162  0.000100  0.012376  0.030459  0.019623 -0.043530
                     12        13        14        15        16        17   
                   0.75941   0.77680   0.77680   0.79287   0.79287   0.79287
                   0.00000   0.00000   0.00000   0.00000   0.00000   0.00000
                  --------  --------  --------  --------  --------  --------
  0C   1s        -0.065426 -0.000000  0.000000  0.000000 -0.000000 -0.000000
  0C   2s        -0.126303 -0.000000  0.000000  0.000000 -0.000000 -0.000000
  0C   1pz        0.000000 -0.000000  0.000000 -0.176245 -0.124832  0.139828
  0C   1px       -0.000000  0.000000  0.000000  0.148717  0.023703  0.208610
  0C   1py        0.000000 -0.000000 -0.000000  0.114096 -0.223723 -0.055918
  0C   3s         0.376102  0.000000 -0.000000 -0.000000  0.000000  0.000000
  0C   2pz       -0.000000 -0.000000  0.000000 -0.570435 -0.404032  0.452568
  0C   2px       -0.000000  0.000000  0.000000  0.481339  0.076718  0.675190
  0C   2py        0.000000 -0.000000 -0.000000  0.369286 -0.724105 -0.180986
  0C   4s         2.296663  0.000000  0.000000  0.000000 -0.000000 -0.000000
  0C   3pz       -0.000000  0.000000 -0.000000  1.461865  1.035422 -1.159805
  0C   3px        0.000000 -0.000000 -0.000000 -1.233539 -0.196607 -1.730324
  0C   3py       -0.000000  0.000000  0.000000 -0.946376  1.855678  0.463816
  0C   1dz2      -0.000000  0.004543 -0.012133 -0.000000 -0.000000  0.000000
  0C   1dxz      -0.000000  0.000000  0.000000 -0.003658  0.007172  0.001793
  0C   1dyz      -0.000000 -0.000000 -0.000000 -0.004768 -0.000760 -0.006688
  0C   1dx2y2    -0.000000  0.012133  0.004543  0.000000 -0.000000 -0.000000
  0C   1dxy      -0.000000  0.000000 -0.000000  0.005650  0.004002 -0.004483
  0C   2dz2       0.000000 -0.342775  0.915503  0.000000  0.000000 -0.000000
  0C   2dxz      -0.000000  0.000000  0.000000 -0.250789  0.491753  0.122911
  0C   2dyz       0.000000 -0.000000 -0.000000 -0.326887 -0.052101 -0.458534
  0C   2dx2y2     0.000000 -0.915503 -0.342775 -0.000000  0.000000  0.000000
  0C   2dxy      -0.000000 -0.000000 -0.000000  0.387393  0.274386 -0.307347
  1H   1s        -0.047339 -0.000000 -0.000000  0.070108 -0.012006  0.002054
  1H   2s        -1.221423 -0.000000  0.000000 -0.115188  0.019726 -0.003375
  1H   3s         0.134984  0.000000  0.000000 -1.813609  0.310578 -0.053138
  1H   1pz       -0.011171 -0.004847  0.012946  0.078163 -0.034326  0.021877
  1H   1px        0.011171  0.008788  0.010671 -0.081882  0.020665  0.025193
  1H   1py        0.011171 -0.013635  0.002275 -0.086559 -0.012760 -0.010542
  2H   1s        -0.047339 -0.000000  0.000000 -0.033671 -0.059442 -0.019912
  2H   2s        -1.221423 -0.000000 -0.000000  0.055321  0.097663  0.032716
  2H   3s         0.134984  0.000000 -0.000000  0.871017  1.537680  0.515100
  2H   1pz        0.011171  0.004847 -0.012946  0.025165  0.069594  0.047851
  2H   1px       -0.011171 -0.008788 -0.010671 -0.028884 -0.083255 -0.000781
  2H   1py        0.011171 -0.013635  0.002275  0.064387  0.056235  0.021408
  3H   1s        -0.047339 -0.000000  0.000000 -0.022614  0.019576  0.064567
  3H   2s        -1.221423 -0.000000 -0.000000  0.037155 -0.032163 -0.106084
  3H   3s         0.134984 -0.000000 -0.000000  0.585002 -0.506399 -1.670267
  3H   1pz        0.011171  0.004847 -0.012946  0.009084 -0.045336 -0.075023
  3H   1px        0.011171  0.008788  0.010671  0.052982 -0.025271 -0.065732
  3H   1py       -0.011171  0.013635 -0.002275 -0.017479 -0.001749  0.086358
  4H   1s        -0.047339 -0.000000 -0.000000 -0.013823  0.051872 -0.046709
  4H   2s        -1.221423 -0.000000  0.000000  0.022712 -0.085226  0.076743
  4H   3s         0.134984 -0.000000  0.000000  0.357589 -1.341859  1.208306
  4H   1pz       -0.011171 -0.004847  0.012946 -0.043914  0.058584 -0.049049
  4H   1px       -0.011171 -0.008788 -0.010671 -0.000016  0.078649 -0.039757
  4H   1py       -0.011171  0.013635 -0.002275 -0.004693  0.045225 -0.075492
                     18        19        20        21        22        23   
                   0.93556   1.19325   1.19325   1.19325   1.72839   1.72839
                   0.00000   0.00000   0.00000   0.00000   0.00000   0.00000
                  --------  --------  --------  --------  --------  --------
  0C   1s         0.103777 -0.000000  0.000000 -0.000000  0.000000  0.000000
  0C   2s         0.218962 -0.000000 -0.000000 -0.000000  0.000000  0.000000
  0C   1pz        0.000000 -0.039329  0.030411 -0.031453  0.000000 -0.000000
  0C   1px        0.000000  0.042022  0.014486 -0.038538 -0.000000  0.000000
  0C   1py       -0.000000 -0.012176 -0.048230 -0.031407 -0.000000  0.000000
  0C   3s        -1.917657  0.000000 -0.000000  0.000000 -0.000000 -0.000000
  0C   2pz       -0.000000 -0.594390  0.459611 -0.475363  0.000000  0.000000
  0C   2px       -0.000000  0.635095  0.218937 -0.582436  0.000000 -0.000000
  0C   2py       -0.000000 -0.184027 -0.728928 -0.474668 -0.000000  0.000000
  0C   4s         5.713390 -0.000000  0.000000 -0.000000  0.000000  0.000000
  0C   3pz       -0.000000 -1.251074  0.967391 -1.000546  0.000000  0.000000
  0C   3px       -0.000000  1.336751  0.460819 -1.225914  0.000000 -0.000000
  0C   3py        0.000000 -0.387341 -1.534250 -0.999083 -0.000000  0.000000
  0C   1dz2      -0.000000  0.000000  0.000000  0.000000 -0.000000 -0.000000
  0C   1dxz      -0.000000 -0.002514 -0.009960 -0.006486 -0.000000  0.000000
  0C   1dyz      -0.000000  0.008678  0.002991 -0.007958  0.000000 -0.000000
  0C   1dx2y2    -0.000000 -0.000000 -0.000000  0.000000 -0.000000  0.000000
  0C   1dxy      -0.000000 -0.008121  0.006280 -0.006495 -0.000000  0.000000
  0C   2dz2      -0.000000 -0.000000 -0.000000  0.000000  0.000000  0.000000
  0C   2dxz      -0.000000 -0.439054 -1.739087 -1.132470 -0.000000  0.000000
  0C   2dyz      -0.000000  1.515221  0.522342 -1.389585 -0.000000 -0.000000
  0C   2dx2y2    -0.000000 -0.000000  0.000000 -0.000000 -0.000000 -0.000000
  0C   2dxy      -0.000000 -1.418104  1.096547 -1.134128  0.000000  0.000000
  1H   1s         0.014659 -0.060782  0.056371  0.033822 -0.000000 -0.000000
  1H   2s        -0.725591  2.167081 -2.009843 -1.205863 -0.000000 -0.000000
  1H   3s        -0.747333 -0.020471  0.018986  0.011391 -0.000000 -0.000000
  1H   1pz        0.089149 -0.102741  0.092931  0.036455 -0.324848 -0.406677
  1H   1px       -0.089149  0.103787 -0.075495 -0.063638  0.106988 -0.406114
  1H   1py       -0.089149  0.082738 -0.099852 -0.060868 -0.431837 -0.000563
  2H   1s         0.014659  0.082180  0.028386  0.021372  0.000000  0.000000
  2H   2s        -0.725591 -2.930002 -1.012078 -0.761970 -0.000000  0.000000
  2H   3s        -0.747333  0.027678  0.009561  0.007198 -0.000000 -0.000000
  2H   1pz       -0.089149 -0.133534 -0.029038 -0.042970 -0.393919  0.319552
  2H   1px        0.089149  0.134580  0.046475  0.015787  0.037917  0.320115
  2H   1py       -0.089149 -0.122989 -0.059581 -0.042952  0.431837  0.000563
  3H   1s         0.014659 -0.013066 -0.081829  0.033903  0.000000  0.000000
  3H   2s        -0.725591  0.465838  2.917489 -1.208745  0.000000 -0.000000
  3H   3s        -0.747333 -0.004401 -0.027560  0.011418  0.000000 -0.000000
  3H   1pz       -0.089149  0.003528  0.129566 -0.061003  0.393919 -0.319552
  3H   1px       -0.089149  0.035122  0.123381 -0.063754 -0.106988  0.406114
  3H   1py        0.089149 -0.023531 -0.136486  0.036589  0.286931  0.086562
  4H   1s         0.014659 -0.008333 -0.002929 -0.089096  0.000000 -0.000000
  4H   2s        -0.725591  0.297084  0.104431  3.176578  0.000000  0.000000
  4H   3s        -0.747333 -0.002806 -0.000987 -0.030007 -0.000000 -0.000000
  4H   1pz        0.089149 -0.027265  0.007596 -0.140428  0.324848  0.406677
  4H   1px        0.089149  0.004330  0.001411 -0.143179 -0.037917 -0.320115
  4H   1py        0.089149 -0.016720 -0.022947 -0.140410 -0.286931 -0.086562
                     24        25        26        27        28        29   
                   1.72839   2.10330   2.10330   2.10330   2.47390   2.47390
                   0.00000   0.00000   0.00000   0.00000   0.00000   0.00000
                  --------  --------  --------  --------  --------  --------
  0C   1s        -0.000000  0.000000 -0.000000 -0.000000 -0.000000 -0.000000
  0C   2s        -0.000000  0.000000 -0.000000 -0.000000 -0.000000 -0.000000
  0C   1pz        0.000000 -0.124207 -0.022276  0.075084  0.273708 -0.116968
  0C   1px       -0.000000 -0.076664  0.005799 -0.125100  0.276095 -0.218685
  0C   1py        0.000000 -0.016013  0.145022  0.016536 -0.240562 -0.384070
  0C   3s         0.000000 -0.000000  0.000000  0.000000  0.000000  0.000000
  0C   2pz       -0.000000  0.393590  0.070590 -0.237929  0.191206 -0.081711
  0C   2px        0.000000  0.242936 -0.018376  0.396422  0.192873 -0.152768
  0C   2py       -0.000000  0.050744 -0.459549 -0.052399 -0.168051 -0.268302
  0C   4s        -0.000000  0.000000 -0.000000 -0.000000 -0.000000 -0.000000
  0C   3pz        0.000000 -0.209358 -0.037548  0.126559  0.600060 -0.256432
  0C   3px       -0.000000 -0.129222  0.009775 -0.210864  0.605291 -0.479431
  0C   3py        0.000000 -0.026992  0.244443  0.027872 -0.527393 -0.842010
  0C   1dz2      -0.000000 -0.000000 -0.000000 -0.000000  0.000000  0.000000
  0C   1dxz      -0.000000 -0.007995  0.072402  0.008256  0.121109  0.193357
  0C   1dyz      -0.000000 -0.038275  0.002895 -0.062456 -0.138998  0.110095
  0C   1dx2y2     0.000000 -0.000000  0.000000 -0.000000  0.000000  0.000000
  0C   1dxy      -0.000000 -0.062010 -0.011121  0.037486 -0.137796  0.058886
  0C   2dz2       0.000000  0.000000 -0.000000 -0.000000 -0.000000 -0.000000
  0C   2dxz       0.000000  0.114417 -1.036184 -0.118149 -0.433257 -0.691718
  0C   2dyz      -0.000000  0.547769 -0.041434  0.893846  0.497252 -0.393856
  0C   2dx2y2     0.000000  0.000000 -0.000000 -0.000000 -0.000000 -0.000000
  0C   2dxy       0.000000  0.887460  0.159165 -0.536477  0.492954 -0.210661
  1H   1s         0.000000 -0.014491 -0.079556  0.084406 -0.285085 -0.581465
  1H   2s        -0.000000 -0.094404 -0.518286  0.549879 -0.021919 -0.044706
  1H   3s         0.000000  0.022251  0.122162 -0.129609 -0.291767 -0.595093
  1H   1pz       -0.016875  0.612385 -0.005375 -0.256950  0.056451  0.309074
  1H   1px       -0.307933  0.413066  0.089492  0.512285 -0.214363 -0.212669
  1H   1py        0.291057  0.103442 -0.621243 -0.210772 -0.065971 -0.165168
  2H   1s         0.000000  0.029211 -0.053749 -0.099606 -0.290798 -0.337963
  2H   2s         0.000000  0.190298 -0.350160 -0.648902 -0.022358 -0.025984
  2H   3s         0.000000 -0.044854  0.082534  0.152949 -0.297614 -0.345884
  2H   1pz       -0.117949  0.590350  0.194184 -0.234196 -0.216384 -0.126521
  2H   1px       -0.409006  0.435101 -0.110067  0.489530  0.058472  0.222926
  2H   1py       -0.291057  0.038021 -0.659877  0.064694 -0.068677 -0.049805
  3H   1s         0.000000  0.084961  0.074226  0.030588  0.946029  0.057953
  3H   2s        -0.000000  0.553499  0.483559  0.199270  0.072735  0.004456
  3H   3s         0.000000 -0.130462 -0.113977 -0.046969  0.968202  0.059311
  3H   1pz        0.117949  0.506891  0.002605 -0.429096  0.369584  0.061051
  3H   1px        0.307933  0.264186 -0.140720  0.592850  0.368899  0.090266
  3H   1py        0.425882  0.208937 -0.629223 -0.038626 -0.379104  0.082855
  4H   1s        -0.000000 -0.099681  0.059080 -0.015388 -0.370146  0.861474
  4H   2s         0.000000 -0.649394  0.384887 -0.100247 -0.028458  0.066234
  4H   3s         0.000000  0.153065 -0.090719  0.023629 -0.378822  0.881666
  4H   1pz        0.016875  0.484855  0.202164 -0.406341  0.096750 -0.374543
  4H   1px        0.409006  0.242150  0.058838  0.615605  0.096064 -0.345328
  4H   1py       -0.425882 -0.067474 -0.651897 -0.107452  0.244456 -0.297827
                     30        31        32        33        34        35   
                   2.47390   2.53134   2.59634   2.59634   2.82073   2.82073
                   0.00000   0.00000   0.00000   0.00000   0.00000   0.00000
                  --------  --------  --------  --------  --------  --------
  0C   1s         0.000000  0.061602  0.000000  0.000000 -0.000000 -0.000000
  0C   2s         0.000000  0.116354  0.000000  0.000000 -0.000000 -0.000000
  0C   1pz        0.347012 -0.000000 -0.000000 -0.000000 -0.096087  0.011254
  0C   1px       -0.291485  0.000000  0.000000 -0.000000  0.008020  0.064836
  0C   1py        0.060286 -0.000000  0.000000 -0.000000 -0.007916 -0.070917
  0C   3s        -0.000000 -0.594588 -0.000000 -0.000000  0.000000  0.000000
  0C   2pz        0.242414 -0.000000 -0.000000 -0.000000 -1.583480  0.185465
  0C   2px       -0.203624 -0.000000 -0.000000  0.000000  0.132170  1.068482
  0C   2py        0.042115 -0.000000 -0.000000  0.000000 -0.130453 -1.168694
  0C   4s         0.000000  0.877045 -0.000000  0.000000  0.000000  0.000000
  0C   3pz        0.760765 -0.000000 -0.000000  0.000000 -1.011276  0.118446
  0C   3px       -0.639031  0.000000  0.000000 -0.000000  0.084409  0.682377
  0C   3py        0.132168 -0.000000  0.000000 -0.000000 -0.083313 -0.746377
  0C   1dz2      -0.000000  0.000000 -0.052621 -0.142221  0.000000 -0.000000
  0C   1dxz      -0.030351  0.000000 -0.000000  0.000000 -0.003470 -0.031084
  0C   1dyz       0.146746 -0.000000 -0.000000  0.000000  0.003515  0.028419
  0C   1dx2y2     0.000000 -0.000000  0.142221 -0.052621 -0.000000 -0.000000
  0C   1dxy      -0.174700 -0.000000  0.000000 -0.000000 -0.042116  0.004933
  0C   2dz2       0.000000 -0.000000  0.508010  1.373013 -0.000000  0.000000
  0C   2dxz       0.108577 -0.000000  0.000000 -0.000000 -0.059073 -0.529219
  0C   2dyz      -0.524969  0.000000  0.000000 -0.000000  0.059850  0.483840
  0C   2dx2y2    -0.000000  0.000000 -1.373013  0.508010  0.000000  0.000000
  0C   2dxy       0.624974 -0.000000 -0.000000 -0.000000 -0.717047  0.083984
  1H   1s        -0.692089  0.708699  0.000000 -0.000000 -0.524491  0.094522
  1H   2s        -0.053211 -0.873986 -0.000000  0.000000  1.814816 -0.327059
  1H   3s        -0.708310  0.169935  0.000000 -0.000000 -0.181535  0.032715
  1H   1pz        0.228222 -0.145616 -0.234955 -0.635019 -0.315123  0.069937
  1H   1px       -0.244170  0.145616 -0.667420 -0.114033  0.506109 -0.234951
  1H   1py       -0.345204  0.145616  0.432465 -0.520987  0.540669  0.059452
  2H   1s         0.836409  0.708699  0.000000 -0.000000  0.610816  0.678845
  2H   2s         0.064307 -0.873986  0.000000  0.000000 -2.113514 -2.348905
  2H   3s         0.856013  0.169935 -0.000000 -0.000000  0.211413  0.234959
  2H   1pz        0.296596  0.145616  0.234955  0.635019 -0.401285 -0.701972
  2H   1px       -0.312544 -0.145616  0.667420  0.114033  0.592272  0.536958
  2H   1py        0.378948  0.145616  0.432465 -0.520987 -0.592498 -0.523770
  3H   1s        -0.005697  0.708699  0.000000  0.000000  0.437030 -0.801574
  3H   2s        -0.000438 -0.873986 -0.000000 -0.000000 -1.512187  2.773565
  3H   3s        -0.005830  0.169935 -0.000000  0.000000  0.151263 -0.277437
  3H   1pz       -0.102366  0.145616  0.234955  0.635019 -0.227826  0.775657
  3H   1px        0.081020  0.145616 -0.667420 -0.114033 -0.453599  0.659455
  3H   1py       -0.014616 -0.145616 -0.432465  0.520987  0.453373 -0.646268
  4H   1s        -0.138623  0.708699 -0.000000  0.000000 -0.523355  0.028207
  4H   2s        -0.010658 -0.873986  0.000000 -0.000000  1.810885 -0.097601
  4H   3s        -0.141872  0.169935 -0.000000  0.000000 -0.181141  0.009763
  4H   1pz       -0.033992 -0.145616 -0.234955 -0.635019 -0.313989  0.003748
  4H   1px        0.149394 -0.145616  0.667420  0.114033 -0.539761 -0.112454
  4H   1py        0.048360 -0.145616 -0.432465  0.520987 -0.505201  0.181949
                     36        37        38        39        40        41   
                   2.82073   3.19092   3.51797   3.51797   3.51797   3.62153
                   0.00000   0.00000   0.00000   0.00000   0.00000   0.00000
                  --------  --------  --------  --------  --------  --------
  0C   1s         0.000000  0.092587  0.000000 -0.000000  0.000000  0.000000
  0C   2s         0.000000  0.264894  0.000000 -0.000000  0.000000  0.000000
  0C   1pz        0.000574 -0.000000  1.166251 -0.247587  0.135134  0.000000
  0C   1px        0.071355 -0.000000 -0.247154 -1.174008 -0.017950 -0.000000
  0C   1py        0.065328 -0.000000 -0.135924  0.010388  1.192107  0.000000
  0C   3s        -0.000000 -1.945335 -0.000000  0.000000 -0.000000 -0.000000
  0C   2pz        0.009458 -0.000000 -2.077823  0.441108 -0.240758 -0.000000
  0C   2px        1.175915 -0.000000  0.440337  2.091643  0.031980  0.000000
  0C   2py        1.076584 -0.000000  0.242166 -0.018508 -2.123888 -0.000000
  0C   4s        -0.000000 -3.818675 -0.000000  0.000000 -0.000000 -0.000000
  0C   3pz        0.006040 -0.000000 -0.260529  0.055309 -0.030188  0.000000
  0C   3px        0.750988 -0.000000  0.055212  0.262262  0.004010  0.000000
  0C   3py        0.687551 -0.000000  0.030364 -0.002321 -0.266305 -0.000000
  0C   1dz2      -0.000000 -0.000000 -0.000000 -0.000000 -0.000000  1.078353
  0C   1dxz       0.028634 -0.000000 -0.060945  0.004658  0.534512  0.000000
  0C   1dyz       0.031276 -0.000000 -0.110818 -0.526397 -0.008048 -0.000000
  0C   1dx2y2    -0.000000 -0.000000  0.000000  0.000000 -0.000000  0.284441
  0C   1dxy       0.000252 -0.000000  0.522919 -0.111012  0.060591  0.000000
  0C   2dz2      -0.000000  0.000000  0.000000 -0.000000  0.000000 -0.346727
  0C   2dxz       0.487509 -0.000000  0.107876 -0.008245 -0.946117 -0.000000
  0C   2dyz       0.532489 -0.000000  0.196154  0.931752  0.014246  0.000000
  0C   2dx2y2    -0.000000  0.000000 -0.000000 -0.000000  0.000000 -0.091457
  0C   2dxy       0.004283 -0.000000 -0.925596  0.196498 -0.107249 -0.000000
  1H   1s        -0.742150 -0.417746  0.165314  0.097741 -0.110864 -0.000000
  1H   2s         2.567948  1.930990  1.105151  0.653414 -0.741145  0.000000
  1H   3s        -0.256870  0.139688 -0.193323 -0.114301  0.129648 -0.000000
  1H   1pz       -0.741995 -0.541689 -0.046930 -0.201165  0.201213 -0.065652
  1H   1px        0.586006  0.541689  0.217012 -0.061905 -0.179528 -0.017829
  1H   1py        0.599077  0.541689  0.237595  0.157271  0.044397 -0.047823
  2H   1s         0.029736 -0.417746 -0.136308 -0.099958 -0.143532 -0.000000
  2H   2s        -0.102891  1.930990 -0.911239 -0.668234 -0.959537 -0.000000
  2H   3s         0.010292  0.139688  0.159402  0.116894  0.167851  0.000000
  2H   1pz       -0.030925  0.541689 -0.000828 -0.204689 -0.203122  0.065652
  2H   1px       -0.125065 -0.541689  0.170909 -0.058382  0.224807  0.017829
  2H   1py       -0.171354  0.541689 -0.241799 -0.156950 -0.007526 -0.047823
  3H   1s        -0.035995 -0.417746 -0.112571  0.152793  0.114695 -0.000000
  3H   2s         0.124547  1.930990 -0.752556  1.021447  0.766752  0.000000
  3H   3s        -0.012458  0.139688  0.131644 -0.178681 -0.134127 -0.000000
  3H   1pz        0.034682  0.541689  0.036899  0.197031  0.207301  0.065652
  3H   1px       -0.118818  0.541689 -0.224656  0.025594  0.178973 -0.017829
  3H   1py       -0.177601 -0.541689  0.153766 -0.240925  0.038308  0.047823
  4H   1s         0.748409 -0.417746  0.083565 -0.150576  0.139702  0.000000
  4H   2s        -2.589605  1.930990  0.558644 -1.006627  0.933929 -0.000000
  4H   3s         0.259036  0.139688 -0.097723  0.176088 -0.163371 -0.000000
  4H   1pz        0.745753 -0.541689  0.083001  0.193508 -0.197034 -0.065652
  4H   1px        0.592253 -0.541689 -0.178554  0.022071 -0.225362  0.017829
  4H   1py        0.605324 -0.541689 -0.157970  0.241247 -0.001438  0.047823
                     42        43        44        45        46   
                   3.62153   4.60846   4.60846   4.60846  25.17716
                   0.00000   0.00000   0.00000   0.00000   0.00000
                  --------  --------  --------  --------  --------
  0C   1s         0.000000 -0.000000  0.000000  0.000000  2.041349
  0C   2s         0.000000 -0.000000  0.000000  0.000000 -2.244531
  0C   1pz       -0.000000 -0.649710  0.139380  0.216323  0.000000
  0C   1px        0.000000  0.049924 -0.508010  0.477262  0.000000
  0C   1py        0.000000  0.252448  0.459178  0.462354 -0.000000
  0C   3s        -0.000000  0.000000 -0.000000 -0.000000  0.766784
  0C   2pz        0.000000  2.318104 -0.497295 -0.771822 -0.000000
  0C   2px       -0.000000 -0.178126  1.812533 -1.702825 -0.000000
  0C   2py       -0.000000 -0.900712 -1.638304 -1.649635  0.000000
  0C   4s         0.000000  0.000000 -0.000000 -0.000000  0.104645
  0C   3pz        0.000000  0.095211 -0.020425 -0.031701  0.000000
  0C   3px        0.000000 -0.007316  0.074445 -0.069939  0.000000
  0C   3py       -0.000000 -0.036995 -0.067289 -0.067755  0.000000
  0C   1dz2      -0.284441  0.000000  0.000000  0.000000 -0.000000
  0C   1dxz       0.000000 -0.422308 -0.768135 -0.773448 -0.000000
  0C   1dyz       0.000000 -0.083516  0.849824 -0.798387 -0.000000
  0C   1dx2y2     1.078353  0.000000  0.000000 -0.000000 -0.000000
  0C   1dxy      -0.000000  1.086867 -0.233162 -0.361877 -0.000000
  0C   2dz2       0.091457 -0.000000 -0.000000  0.000000 -0.000000
  0C   2dxz      -0.000000 -0.137125 -0.249417 -0.251142  0.000000
  0C   2dyz      -0.000000 -0.027118  0.275942 -0.259240 -0.000000
  0C   2dx2y2    -0.346727 -0.000000  0.000000  0.000000  0.000000
  0C   2dxy       0.000000  0.352911 -0.075709 -0.117503 -0.000000
  1H   1s        -0.000000 -0.344374  0.068077 -0.261619  0.012735
  1H   2s        -0.000000 -1.290314  0.255075 -0.980244 -0.256129
  1H   3s         0.000000  0.206876 -0.040896  0.157163  0.040882
  1H   1pz        0.017317  0.523603 -0.101045  0.557630  0.096489
  1H   1px        0.065515 -0.658659  0.018039 -0.401453 -0.096489
  1H   1py       -0.048197 -0.613056  0.235823 -0.404810 -0.096489
  2H   1s         0.000000  0.161750 -0.400252 -0.072853  0.012735
  2H   2s        -0.000000  0.606050 -1.499681 -0.272969 -0.256129
  2H   3s         0.000000 -0.097168  0.240444  0.043765  0.040882
  2H   1pz       -0.017317  0.168350 -0.747214 -0.093009 -0.096489
  2H   1px       -0.065515 -0.303405  0.664208  0.249185  0.096489
  2H   1py       -0.048197  0.371491 -0.675204 -0.037610 -0.096489
  3H   1s         0.000000  0.308258  0.299423 -0.083638  0.012735
  3H   2s         0.000000  1.154993  1.121890 -0.313377 -0.256129
  3H   3s        -0.000000 -0.185180 -0.179873  0.050244  0.040882
  3H   1pz       -0.017317  0.453348  0.613843 -0.113988 -0.096489
  3H   1px        0.065515  0.610887  0.468069 -0.055232 -0.096489
  3H   1py        0.048197 -0.542800 -0.479064  0.266807  0.096489
  4H   1s         0.000000 -0.125634  0.032752  0.418109  0.012735
  4H   2s         0.000000 -0.470730  0.122715  1.566590 -0.256129
  4H   3s        -0.000000  0.075472 -0.019675 -0.251171  0.040882
  4H   1pz        0.017317  0.098095 -0.032326 -0.764626  0.096489
  4H   1px       -0.065515  0.255633 -0.178101 -0.705870  0.096489
  4H   1py        0.048197  0.301236  0.039684 -0.709227  0.096489

                      0         1         2         3         4         5   
                 -11.20412  -0.94488  -0.54633  -0.54633  -0.54633   0.16240
                   1.00000   1.00000   1.00000   1.00000   1.00000   0.00000
                  --------  --------  --------  --------  --------  --------
  0C   1s         0.563299 -0.102989 -0.000000 -0.000000  0.000000 -0.048544
  0C   2s         0.466540 -0.169607  0.000000 -0.000000  0.000000 -0.077865
  0C   1pz       -0.000000 -0.000000 -0.062380  0.076302  0.163472  0.000000
  0C   1px       -0.000000 -0.000000  0.176558  0.061340  0.038742  0.000000
  0C   1py       -0.000000  0.000000  0.037045 -0.163865  0.090621 -0.000000
  0C   3s         0.004539  0.422938  0.000000  0.000000 -0.000000  0.063257
  0C   2pz        0.000000  0.000000 -0.094290  0.115334  0.247096 -0.000000
  0C   2px        0.000000 -0.000000  0.266877  0.092718  0.058561  0.000000
  0C   2py        0.000000 -0.000000  0.055995 -0.247690  0.136979 -0.000000
  0C   4s        -0.001109  0.261447 -0.000000 -0.000000  0.000000  2.171768
  0C   3pz       -0.000000 -0.000000 -0.066333  0.081138  0.173832 -0.000000
  0C   3px        0.000000 -0.000000  0.187747  0.065227  0.041198  0.000000
  0C   3py       -0.000000 -0.000000  0.039392 -0.174250  0.096365 -0.000000
  0C   1dz2      -0.000000 -0.000000  0.000000  0.000000 -0.000000 -0.000000
  0C   1dxz      -0.000000 -0.000000  0.003445 -0.015240  0.008428 -0.000000
  0C   1dyz       0.000000  0.000000  0.016420  0.005705  0.003603 -0.000000
  0C   1dx2y2    -0.000000 -0.000000 -0.000000  0.000000 -0.000000 -0.000000
  0C   1dxy      -0.000000  0.000000 -0.005801  0.007096  0.015203 -0.000000
  0C   2dz2       0.000000 -0.000000  0.000000 -0.000000  0.000000 -0.000000
  0C   2dxz      -0.000000 -0.000000  0.003490 -0.015436  0.008536 -0.000000
  0C   2dyz       0.000000 -0.000000  0.016631  0.005778  0.003649  0.000000
  0C   2dx2y2     0.000000  0.000000 -0.000000 -0.000000  0.000000  0.000000
  0C   2dxy       0.000000  0.000000 -0.005876  0.007187  0.015399 -0.000000
  1H   1s         0.000376  0.083901 -0.147409  0.095516  0.018218 -0.008311
  1H   2s         0.000063  0.113317 -0.228394  0.147992  0.028227  0.006053
  1H   3s         0.000219  0.007491 -0.091962  0.059588  0.011365 -0.786313
  1H   1pz        0.000004 -0.011263  0.013838 -0.006948  0.007051  0.001292
  1H   1px       -0.000004  0.011263 -0.007416  0.014690  0.004323 -0.001292
  1H   1py       -0.000004  0.011263 -0.015262  0.002023  0.007241 -0.001292
  2H   1s         0.000376  0.083901  0.107836  0.079532 -0.115024 -0.008311
  2H   2s         0.000063  0.113317  0.167080  0.123227 -0.178218  0.006053
  2H   3s         0.000219  0.007491  0.067274  0.049617 -0.071759 -0.786313
  2H   1pz       -0.000004  0.011263  0.009181  0.013650 -0.004341 -0.001292
  2H   1px        0.000004 -0.011263 -0.002759 -0.005909  0.015714  0.001292
  2H   1py       -0.000004  0.011263  0.014773  0.000142 -0.008438 -0.001292
  3H   1s         0.000376  0.083901 -0.041199 -0.161042 -0.059604 -0.008311
  3H   2s         0.000063  0.113317 -0.063833 -0.249517 -0.092351  0.006053
  3H   3s         0.000219  0.007491 -0.025702 -0.100468 -0.037185 -0.786313
  3H   1pz       -0.000004  0.011263 -0.008356 -0.014659  0.002180 -0.001292
  3H   1px       -0.000004  0.011263  0.005082 -0.015500 -0.004835 -0.001292
  3H   1py        0.000004 -0.011263  0.006932  0.009734  0.012111  0.001292
  4H   1s         0.000376  0.083901  0.080772 -0.014006  0.156410 -0.008311
  4H   2s         0.000063  0.113317  0.125147 -0.021701  0.242342  0.006053
  4H   3s         0.000219  0.007491  0.050390 -0.008738  0.097578 -0.786313
  4H   1pz        0.000004 -0.011263 -0.013013  0.005940 -0.009211  0.001292
  4H   1px        0.000004 -0.011263  0.000426  0.005098 -0.016226  0.001292
  4H   1py        0.000004 -0.011263 -0.007421 -0.007568 -0.013308  0.001292
                      6         7         8         9        10        11   
                   0.23799   0.23799   0.23799   0.42150   0.42150   0.42150
                   0.00000   0.00000   0.00000   0.00000   0.00000   0.00000
                  --------  --------  --------  --------  --------  --------
  0C   1s        -0.000000 -0.000000 -0.000000 -0.000000 -0.000000  0.000000
  0C   2s         0.000000 -0.000000 -0.000000 -0.000000 -0.000000  0.000000
  0C   1pz        0.111132 -0.011666 -0.072592 -0.002939  0.003392  0.002840
  0C   1px       -0.072420 -0.040079 -0.104428  0.002503 -0.001538  0.004426
  0C   1py       -0.012692  0.126545 -0.039767 -0.003649 -0.003787  0.000748
  0C   3s        -0.000000  0.000000  0.000000  0.000000 -0.000000 -0.000000
  0C   2pz        0.074722 -0.007844 -0.048809  0.045168 -0.052134 -0.043651
  0C   2px       -0.048693 -0.026948 -0.070214 -0.038459  0.023629 -0.068015
  0C   2py       -0.008533  0.085085 -0.026738  0.056074  0.058200 -0.011488
  0C   4s        -0.000000 -0.000000 -0.000000 -0.000000  0.000000  0.000000
  0C   3pz        0.977388 -0.102602 -0.638434  1.002536 -1.157157 -0.968881
  0C   3px       -0.636919 -0.352491 -0.918420 -0.853637  0.524456 -1.509659
  0C   3py       -0.111620  1.112940 -0.349740  1.244607  1.291803 -0.254990
  0C   1dz2      -0.000000 -0.000000  0.000000 -0.000000 -0.000000  0.000000
  0C   1dxz       0.000973 -0.009702  0.003049 -0.015689 -0.016284  0.003214
  0C   1dyz       0.005552  0.003073  0.008006  0.010760 -0.006611  0.019030
  0C   1dx2y2     0.000000 -0.000000 -0.000000 -0.000000  0.000000  0.000000
  0C   1dxy      -0.008520  0.000894  0.005565 -0.012637  0.014586  0.012213
  0C   2dz2      -0.000000  0.000000 -0.000000  0.000000 -0.000000 -0.000000
  0C   2dxz      -0.001128  0.011252 -0.003536  0.160028  0.166096 -0.032786
  0C   2dyz      -0.006439 -0.003564 -0.009285 -0.109758  0.067433 -0.194107
  0C   2dx2y2    -0.000000 -0.000000 -0.000000  0.000000 -0.000000 -0.000000
  0C   2dxy       0.009881 -0.001037 -0.006454  0.128903 -0.148784 -0.124576
  1H   1s        -0.017781  0.008892 -0.006488 -0.012623  0.061371 -0.016425
  1H   2s         0.130161 -0.065087  0.047491 -0.319548  1.553636 -0.415796
  1H   3s        -2.018257  1.009231 -0.736386 -0.007388  0.035921 -0.009613
  1H   1pz       -0.008293  0.005848 -0.007408  0.016753 -0.053876  0.004934
  1H   1px        0.009793 -0.007852  0.000552 -0.015648  0.049183 -0.023321
  1H   1py        0.012106 -0.001398  0.003056 -0.000083  0.054875 -0.014013
  2H   1s         0.015481  0.014041 -0.000719  0.064000 -0.008046  0.005899
  2H   2s        -0.113325 -0.102778  0.005260  1.620184 -0.203679  0.149327
  2H   3s         1.757206  1.593658 -0.081568  0.037460 -0.004709  0.003453
  2H   1pz       -0.006664 -0.010399 -0.002302  0.054669 -0.014522 -0.002834
  2H   1px        0.008163  0.008395 -0.004554 -0.053565  0.009828 -0.015552
  2H   1py       -0.011460 -0.005046 -0.001031  0.056465  0.003645  0.002462
  3H   1s         0.004658 -0.016155 -0.012436 -0.022615 -0.039722 -0.045894
  3H   2s        -0.034094  0.118253  0.091035 -0.572517 -1.005570 -1.161824
  3H   3s         0.528661 -1.833619 -1.411571 -0.013237 -0.023249 -0.026862
  3H   1pz        0.001004  0.010993  0.005999 -0.009253 -0.037899 -0.041057
  3H   1px       -0.006105  0.009893  0.004766 -0.023023 -0.025424 -0.045069
  3H   1py        0.002808 -0.006544 -0.010351  0.025923  0.038898  0.031978
  4H   1s        -0.002358 -0.006777  0.019643 -0.028762 -0.013604  0.056420
  4H   2s         0.017259  0.049612 -0.143786 -0.728119 -0.344386  1.428293
  4H   3s        -0.267610 -0.769271  2.229525 -0.016835 -0.007962  0.033023
  4H   1pz        0.002634 -0.005253  0.011105  0.028664  0.001456 -0.048826
  4H   1px       -0.004475 -0.006354  0.009872  0.014894  0.013930 -0.052837
  4H   1py       -0.002162  0.000100  0.012376  0.030459  0.019623 -0.043530
                     12        13        14        15        16        17   
                   0.75941   0.77680   0.77680   0.79287   0.79287   0.79287
                   0.00000   0.00000   0.00000   0.00000   0.00000   0.00000
                  --------  --------  --------  --------  --------  --------
  0C   1s        -0.065426 -0.000000  0.000000  0.000000 -0.000000 -0.000000
  0C   2s        -0.126303 -0.000000  0.000000  0.000000 -0.000000 -0.000000
  0C   1pz        0.000000 -0.000000  0.000000 -0.176245 -0.124832  0.139828
  0C   1px       -0.000000  0.000000  0.000000  0.148717  0.023703  0.208610
  0C   1py        0.000000 -0.000000 -0.000000  0.114096 -0.223723 -0.055918
  0C   3s         0.376102  0.000000 -0.000000 -0.000000  0.000000  0.000000
  0C   2pz       -0.000000 -0.000000  0.000000 -0.570435 -0.404032  0.452568
  0C   2px       -0.000000  0.000000  0.000000  0.481339  0.076718  0.675190
  0C   2py        0.000000 -0.000000 -0.000000  0.369286 -0.724105 -0.180986
  0C   4s         2.296663  0.000000  0.000000  0.000000 -0.000000 -0.000000
  0C   3pz       -0.000000  0.000000 -0.000000  1.461865  1.035422 -1.159805
  0C   3px        0.000000 -0.000000 -0.000000 -1.233539 -0.196607 -1.730324
  0C   3py       -0.000000  0.000000  0.000000 -0.946376  1.855678  0.463816
  0C   1dz2      -0.000000  0.004543 -0.012133 -0.000000 -0.000000  0.000000
  0C   1dxz      -0.000000  0.000000  0.000000 -0.003658  0.007172  0.001793
  0C   1dyz      -0.000000 -0.000000 -0.000000 -0.004768 -0.000760 -0.006688
  0C   1dx2y2    -0.000000  0.012133  0.004543  0.000000 -0.000000 -0.000000
  0C   1dxy      -0.000000  0.000000 -0.000000  0.005650  0.004002 -0.004483
  0C   2dz2       0.000000 -0.342775  0.915503  0.000000  0.000000 -0.000000
  0C   2dxz      -0.000000  0.000000  0.000000 -0.250789  0.491753  0.122911
  0C   2dyz       0.000000 -0.000000 -0.000000 -0.326887 -0.052101 -0.458534
  0C   2dx2y2     0.000000 -0.915503 -0.342775 -0.000000  0.000000  0.000000
  0C   2dxy      -0.000000 -0.000000 -0.000000  0.387393  0.274386 -0.307347
  1H   1s        -0.047339 -0.000000 -0.000000  0.070108 -0.012006  0.002054
  1H   2s        -1.221423 -0.000000  0.000000 -0.115188  0.019726 -0.003375
  1H   3s         0.134984  0.000000  0.000000 -1.813609  0.310578 -0.053138
  1H   1pz       -0.011171 -0.004847  0.012946  0.078163 -0.034326  0.021877
  1H   1px        0.011171  0.008788  0.010671 -0.081882  0.020665  0.025193
  1H   1py        0.011171 -0.013635  0.002275 -0.086559 -0.012760 -0.010542
  2H   1s        -0.047339 -0.000000  0.000000 -0.033671 -0.059442 -0.019912
  2H   2s        -1.221423 -0.000000 -0.000000  0.055321  0.097663  0.032716
  2H   3s         0.134984  0.000000 -0.000000  0.871017  1.537680  0.515100
  2H   1pz        0.011171  0.004847 -0.012946  0.025165  0.069594  0.047851
  2H   1px       -0.011171 -0.008788 -0.010671 -0.028884 -0.083255 -0.000781
  2H   1py        0.011171 -0.013635  0.002275  0.064387  0.056235  0.021408
  3H   1s        -0.047339 -0.000000  0.000000 -0.022614  0.019576  0.064567
  3H   2s        -1.221423 -0.000000 -0.000000  0.037155 -0.032163 -0.106084
  3H   3s         0.134984 -0.000000 -0.000000  0.585002 -0.506399 -1.670267
  3H   1pz        0.011171  0.004847 -0.012946  0.009084 -0.045336 -0.075023
  3H   1px        0.011171  0.008788  0.010671  0.052982 -0.025271 -0.065732
  3H   1py       -0.011171  0.013635 -0.002275 -0.017479 -0.001749  0.086358
  4H   1s        -0.047339 -0.000000 -0.000000 -0.013823  0.051872 -0.046709
  4H   2s        -1.221423 -0.000000  0.000000  0.022712 -0.085226  0.076743
  4H   3s         0.134984 -0.000000  0.000000  0.357589 -1.341859  1.208306
  4H   1pz       -0.011171 -0.004847  0.012946 -0.043914  0.058584 -0.049049
  4H   1px       -0.011171 -0.008788 -0.010671 -0.000016  0.078649 -0.039757
  4H   1py       -0.011171  0.013635 -0.002275 -0.004693  0.045225 -0.075492
                     18        19        20        21        22        23   
                   0.93556   1.19325   1.19325   1.19325   1.72839   1.72839
                   0.00000   0.00000   0.00000   0.00000   0.00000   0.00000
                  --------  --------  --------  --------  --------  --------
  0C   1s         0.103777 -0.000000  0.000000 -0.000000  0.000000  0.000000
  0C   2s         0.218962 -0.000000 -0.000000 -0.000000  0.000000  0.000000
  0C   1pz        0.000000 -0.039329  0.030411 -0.031453  0.000000 -0.000000
  0C   1px        0.000000  0.042022  0.014486 -0.038538 -0.000000  0.000000
  0C   1py       -0.000000 -0.012176 -0.048230 -0.031407 -0.000000  0.000000
  0C   3s        -1.917657  0.000000 -0.000000  0.000000 -0.000000 -0.000000
  0C   2pz       -0.000000 -0.594390  0.459611 -0.475363  0.000000  0.000000
  0C   2px       -0.000000  0.635095  0.218937 -0.582436  0.000000 -0.000000
  0C   2py       -0.000000 -0.184027 -0.728928 -0.474668 -0.000000  0.000000
  0C   4s         5.713390 -0.000000  0.000000 -0.000000  0.000000  0.000000
  0C   3pz       -0.000000 -1.251074  0.967391 -1.000546  0.000000  0.000000
  0C   3px       -0.000000  1.336751  0.460819 -1.225914  0.000000 -0.000000
  0C   3py        0.000000 -0.387341 -1.534250 -0.999083 -0.000000  0.000000
  0C   1dz2      -0.000000  0.000000  0.000000  0.000000 -0.000000 -0.000000
  0C   1dxz      -0.000000 -0.002514 -0.009960 -0.006486 -0.000000  0.000000
  0C   1dyz      -0.000000  0.008678  0.002991 -0.007958  0.000000 -0.000000
  0C   1dx2y2    -0.000000 -0.000000 -0.000000  0.000000 -0.000000  0.000000
  0C   1dxy      -0.000000 -0.008121  0.006280 -0.006495 -0.000000  0.000000
  0C   2dz2      -0.000000 -0.000000 -0.000000  0.000000  0.000000  0.000000
  0C   2dxz      -0.000000 -0.439054 -1.739087 -1.132470 -0.000000  0.000000
  0C   2dyz      -0.000000  1.515221  0.522342 -1.389585 -0.000000 -0.000000
  0C   2dx2y2    -0.000000 -0.000000  0.000000 -0.000000 -0.000000 -0.000000
  0C   2dxy      -0.000000 -1.418104  1.096547 -1.134128  0.000000  0.000000
  1H   1s         0.014659 -0.060782  0.056371  0.033822 -0.000000 -0.000000
  1H   2s        -0.725591  2.167081 -2.009843 -1.205863 -0.000000 -0.000000
  1H   3s        -0.747333 -0.020471  0.018986  0.011391 -0.000000 -0.000000
  1H   1pz        0.089149 -0.102741  0.092931  0.036455 -0.324848 -0.406677
  1H   1px       -0.089149  0.103787 -0.075495 -0.063638  0.106988 -0.406114
  1H   1py       -0.089149  0.082738 -0.099852 -0.060868 -0.431837 -0.000563
  2H   1s         0.014659  0.082180  0.028386  0.021372  0.000000  0.000000
  2H   2s        -0.725591 -2.930002 -1.012078 -0.761970 -0.000000  0.000000
  2H   3s        -0.747333  0.027678  0.009561  0.007198 -0.000000 -0.000000
  2H   1pz       -0.089149 -0.133534 -0.029038 -0.042970 -0.393919  0.319552
  2H   1px        0.089149  0.134580  0.046475  0.015787  0.037917  0.320115
  2H   1py       -0.089149 -0.122989 -0.059581 -0.042952  0.431837  0.000563
  3H   1s         0.014659 -0.013066 -0.081829  0.033903  0.000000  0.000000
  3H   2s        -0.725591  0.465838  2.917489 -1.208745  0.000000 -0.000000
  3H   3s        -0.747333 -0.004401 -0.027560  0.011418  0.000000 -0.000000
  3H   1pz       -0.089149  0.003528  0.129566 -0.061003  0.393919 -0.319552
  3H   1px       -0.089149  0.035122  0.123381 -0.063754 -0.106988  0.406114
  3H   1py        0.089149 -0.023531 -0.136486  0.036589  0.286931  0.086562
  4H   1s         0.014659 -0.008333 -0.002929 -0.089096  0.000000 -0.000000
  4H   2s        -0.725591  0.297084  0.104431  3.176578  0.000000  0.000000
  4H   3s        -0.747333 -0.002806 -0.000987 -0.030007 -0.000000 -0.000000
  4H   1pz        0.089149 -0.027265  0.007596 -0.140428  0.324848  0.406677
  4H   1px        0.089149  0.004330  0.001411 -0.143179 -0.037917 -0.320115
  4H   1py        0.089149 -0.016720 -0.022947 -0.140410 -0.286931 -0.086562
                     24        25        26        27        28        29   
                   1.72839   2.10330   2.10330   2.10330   2.47390   2.47390
                   0.00000   0.00000   0.00000   0.00000   0.00000   0.00000
                  --------  --------  --------  --------  --------  --------
  0C   1s        -0.000000  0.000000 -0.000000 -0.000000 -0.000000 -0.000000
  0C   2s        -0.000000  0.000000 -0.000000 -0.000000 -0.000000 -0.000000
  0C   1pz        0.000000 -0.124207 -0.022276  0.075084  0.273708 -0.116968
  0C   1px       -0.000000 -0.076664  0.005799 -0.125100  0.276095 -0.218685
  0C   1py        0.000000 -0.016013  0.145022  0.016536 -0.240562 -0.384070
  0C   3s         0.000000 -0.000000  0.000000  0.000000  0.000000  0.000000
  0C   2pz       -0.000000  0.393590  0.070590 -0.237929  0.191206 -0.081711
  0C   2px        0.000000  0.242936 -0.018376  0.396422  0.192873 -0.152768
  0C   2py       -0.000000  0.050744 -0.459549 -0.052399 -0.168051 -0.268302
  0C   4s        -0.000000  0.000000 -0.000000 -0.000000 -0.000000 -0.000000
  0C   3pz        0.000000 -0.209358 -0.037548  0.126559  0.600060 -0.256432
  0C   3px       -0.000000 -0.129222  0.009775 -0.210864  0.605291 -0.479431
  0C   3py        0.000000 -0.026992  0.244443  0.027872 -0.527393 -0.842010
  0C   1dz2      -0.000000 -0.000000 -0.000000 -0.000000  0.000000  0.000000
  0C   1dxz      -0.000000 -0.007995  0.072402  0.008256  0.121109  0.193357
  0C   1dyz      -0.000000 -0.038275  0.002895 -0.062456 -0.138998  0.110095
  0C   1dx2y2     0.000000 -0.000000  0.000000 -0.000000  0.000000  0.000000
  0C   1dxy      -0.000000 -0.062010 -0.011121  0.037486 -0.137796  0.058886
  0C   2dz2       0.000000  0.000000 -0.000000 -0.000000 -0.000000 -0.000000
  0C   2dxz       0.000000  0.114417 -1.036184 -0.118149 -0.433257 -0.691718
  0C   2dyz      -0.000000  0.547769 -0.041434  0.893846  0.497252 -0.393856
  0C   2dx2y2     0.000000  0.000000 -0.000000 -0.000000 -0.000000 -0.000000
  0C   2dxy       0.000000  0.887460  0.159165 -0.536477  0.492954 -0.210661
  1H   1s         0.000000 -0.014491 -0.079556  0.084406 -0.285085 -0.581465
  1H   2s        -0.000000 -0.094404 -0.518286  0.549879 -0.021919 -0.044706
  1H   3s         0.000000  0.022251  0.122162 -0.129609 -0.291767 -0.595093
  1H   1pz       -0.016875  0.612385 -0.005375 -0.256950  0.056451  0.309074
  1H   1px       -0.307933  0.413066  0.089492  0.512285 -0.214363 -0.212669
  1H   1py        0.291057  0.103442 -0.621243 -0.210772 -0.065971 -0.165168
  2H   1s         0.000000  0.029211 -0.053749 -0.099606 -0.290798 -0.337963
  2H   2s         0.000000  0.190298 -0.350160 -0.648902 -0.022358 -0.025984
  2H   3s         0.000000 -0.044854  0.082534  0.152949 -0.297614 -0.345884
  2H   1pz       -0.117949  0.590350  0.194184 -0.234196 -0.216384 -0.126521
  2H   1px       -0.409006  0.435101 -0.110067  0.489530  0.058472  0.222926
  2H   1py       -0.291057  0.038021 -0.659877  0.064694 -0.068677 -0.049805
  3H   1s         0.000000  0.084961  0.074226  0.030588  0.946029  0.057953
  3H   2s        -0.000000  0.553499  0.483559  0.199270  0.072735  0.004456
  3H   3s         0.000000 -0.130462 -0.113977 -0.046969  0.968202  0.059311
  3H   1pz        0.117949  0.506891  0.002605 -0.429096  0.369584  0.061051
  3H   1px        0.307933  0.264186 -0.140720  0.592850  0.368899  0.090266
  3H   1py        0.425882  0.208937 -0.629223 -0.038626 -0.379104  0.082855
  4H   1s        -0.000000 -0.099681  0.059080 -0.015388 -0.370146  0.861474
  4H   2s         0.000000 -0.649394  0.384887 -0.100247 -0.028458  0.066234
  4H   3s         0.000000  0.153065 -0.090719  0.023629 -0.378822  0.881666
  4H   1pz        0.016875  0.484855  0.202164 -0.406341  0.096750 -0.374543
  4H   1px        0.409006  0.242150  0.058838  0.615605  0.096064 -0.345328
  4H   1py       -0.425882 -0.067474 -0.651897 -0.107452  0.244456 -0.297827
                     30        31        32        33        34        35   
                   2.47390   2.53134   2.59634   2.59634   2.82073   2.82073
                   0.00000   0.00000   0.00000   0.00000   0.00000   0.00000
                  --------  --------  --------  --------  --------  --------
  0C   1s         0.000000  0.061602  0.000000  0.000000 -0.000000 -0.000000
  0C   2s         0.000000  0.116354  0.000000  0.000000 -0.000000 -0.000000
  0C   1pz        0.347012 -0.000000 -0.000000 -0.000000 -0.096087  0.011254
  0C   1px       -0.291485  0.000000  0.000000 -0.000000  0.008020  0.064836
  0C   1py        0.060286 -0.000000  0.000000 -0.000000 -0.007916 -0.070917
  0C   3s        -0.000000 -0.594588 -0.000000 -0.000000  0.000000  0.000000
  0C   2pz        0.242414 -0.000000 -0.000000 -0.000000 -1.583480  0.185465
  0C   2px       -0.203624 -0.000000 -0.000000  0.000000  0.132170  1.068482
  0C   2py        0.042115 -0.000000 -0.000000  0.000000 -0.130453 -1.168694
  0C   4s         0.000000  0.877045 -0.000000  0.000000  0.000000  0.000000
  0C   3pz        0.760765 -0.000000 -0.000000  0.000000 -1.011276  0.118446
  0C   3px       -0.639031  0.000000  0.000000 -0.000000  0.084409  0.682377
  0C   3py        0.132168 -0.000000  0.000000 -0.000000 -0.083313 -0.746377
  0C   1dz2      -0.000000  0.000000 -0.052621 -0.142221  0.000000 -0.000000
  0C   1dxz      -0.030351  0.000000 -0.000000  0.000000 -0.003470 -0.031084
[...]
    6. BD*( 1) C  1- H  2       0.00698
    7. BD*( 1) C  1- H  3       0.00698
    8. BD*( 1) C  1- H  4       0.00698
    9. BD*( 1) C  1- H  5       0.00698
   10. RY ( 1) C  1             0.00353
   11. RY ( 2) C  1             0.00353
   12. RY ( 3) C  1             0.00353
   13. RY ( 4) C  1             0.00299
   14. RY ( 5) C  1             0.00299
   15. RY ( 6) C  1             0.00100
   16. RY ( 7) C  1             0.00071
   17. RY ( 8) C  1             0.00071
   18. RY ( 9) C  1             0.00071
   19. RY (10) C  1             0.00016
   20. RY (11) C  1             0.00016
   21. RY (12) C  1             0.00016
   22. RY (13) C  1             0.00014
   23. RY (14) C  1             0.00014
   24. RY (15) C  1             0.00014
   25. RY (16) C  1             0.00009
   26. RY (17) C  1             0.00009
   27. RY (18) C  1             0.00009
   28. RY ( 1) H  2             0.00135
   29. RY ( 2) H  2             0.00051
   30. RY ( 3) H  2             0.00051
   31. RY ( 4) H  2             0.00023
   32. RY ( 5) H  2             0.00015
   33. RY ( 1) H  3             0.00135
   34. RY ( 2) H  3             0.00051
   35. RY ( 3) H  3             0.00051
   36. RY ( 4) H  3             0.00023
   37. RY ( 5) H  3             0.00015
   38. RY ( 1) H  4             0.00135
   39. RY ( 2) H  4             0.00051
   40. RY ( 3) H  4             0.00051
   41. RY ( 4) H  4             0.00023
   42. RY ( 5) H  4             0.00015
   43. RY ( 1) H  5             0.00135
   44. RY ( 2) H  5             0.00051
   45. RY ( 3) H  5             0.00051
   46. RY ( 4) H  5             0.00023
   47. RY ( 5) H  5             0.00015
          -------------------------------
                 Total Lewis    4.94021  ( 98.8041%)
           Valence non-Lewis    0.02791  (  0.5583%)
           Rydberg non-Lewis    0.03188  (  0.6376%)
          -------------------------------
               Total unit  1    5.00000  (100.0000%)
              Charge unit  1    0.00000

 $CHOOSE
  ALPHA
   BOND S 1 2 S 1 3 S 1 4 S 1 5 END
  END
  BETA
   BOND S 1 2 S 1 3 S 1 4 S 1 5 END
  END
 $END

 NBO analysis completed in 0.09 CPU seconds (0 wall seconds)
 Maximum scratch memory used by NBO was 338556 words (2.58 MB)
Stopping NBO...Storing NBOs: methane.pmp2re.nbo

                                *** returned from   NBO  program ***


----------------------------------
MP2 DERIVATIVE INTEGRAL GENERATION
----------------------------------


Input Wavefunction Amplitudes       ... methane.mp2tbb.tmp
Input Correlated Electron Density   ... methane.pmp2re
Input Energy Weighted Density       ... methane.wmp2.tmp
Input SCF Electron Density          ... methane.scfp

One-Electron Terms    ...
                        ... One-Electron Terms done
Prescreening matrices              ... done

Batch handling in the gradient evaluation:
Memory available                      ... 3000.0 MB
Memory per occupied orbital in Q2     ...    0.2 MB
Memory per occupied orbital in Q3     ...    0.0 MB
Total memory requirement per |i>      ...    0.2 MB
Max. Number of orbitals possible      ...  16901
Number of orbitals treated per batch  ...     10
Number of batches to be done          ...      1
Batch   0: i=    0 ...     9

---------------------------------------
MP2 TOTAL ENERGY:      -40.407729677 Eh
---------------------------------------

-----------------------------------
NORM OF THE MP2 GRADIENT:  0.000000
-----------------------------------

-------------------------   --------------------
FINAL SINGLE POINT ENERGY       -40.407729676857
-------------------------   --------------------

                                *** OPTIMIZATION RUN DONE ***

                            ***************************************
                            *     ORCA property calculations      *
                            ***************************************

                                    ---------------------
                                    Active property flags
                                    ---------------------
   (+) Dipole Moment


------------------------------------------------------------------------------
                       ORCA ELECTRIC PROPERTIES CALCULATION
------------------------------------------------------------------------------

Dipole Moment Calculation                       ... on
Quadrupole Moment Calculation                   ... off
Polarizability Calculation                      ... off
GBWName                                         ... methane.gbw
Electron density file                           ... methane.scfp
The origin for moment calculation is the CENTER OF MASS  = ( 0.000000, -0.000000  0.000000)

-------------
DIPOLE MOMENT
-------------
                                X             Y             Z
Electronic contribution:      0.00000      -0.00000      -0.00000
Nuclear contribution   :     -0.00000       0.00000      -0.00000
                        -----------------------------------------
Total Dipole Moment    :     -0.00000      -0.00000      -0.00000
                        -----------------------------------------
Magnitude (a.u.)       :      0.00000
Magnitude (Debye)      :      0.00000



--------------------
Rotational spectrum 
--------------------
 
Rotational constants in cm-1:     5.300328     5.300328     5.300328 
Rotational constants in MHz : 158899.830241 158899.830240 158899.830238 

 Dipole components along the rotational axes: 
x,y,z [a.u.] :    -0.000000    -0.000000     0.000000 
x,y,z [Debye]:    -0.000000    -0.000000     0.000000 

 

                         *** MP2 UNRELAXED DENSITY ***

------------------------------------------------------------------------------
                       ORCA ELECTRIC PROPERTIES CALCULATION
------------------------------------------------------------------------------

Dipole Moment Calculation                       ... on
Quadrupole Moment Calculation                   ... off
Polarizability Calculation                      ... off
GBWName                                         ... methane.gbw
Electron density file                           ... methane.pmp2ur
The origin for moment calculation is the CENTER OF MASS  = ( 0.000000, -0.000000  0.000000)

-------------
DIPOLE MOMENT
-------------
                                X             Y             Z
Electronic contribution:      0.00000      -0.00000      -0.00000
Nuclear contribution   :     -0.00000       0.00000      -0.00000
                        -----------------------------------------
Total Dipole Moment    :     -0.00000      -0.00000      -0.00000
                        -----------------------------------------
Magnitude (a.u.)       :      0.00000
Magnitude (Debye)      :      0.00000



--------------------
Rotational spectrum 
--------------------
 
Rotational constants in cm-1:     5.300328     5.300328     5.300328 
Rotational constants in MHz : 158899.830241 158899.830240 158899.830238 

 Dipole components along the rotational axes: 
x,y,z [a.u.] :    -0.000000    -0.000000     0.000000 
x,y,z [Debye]:    -0.000000    -0.000000     0.000000 

 

                           *** MP2 RELAXED DENSITY ***

------------------------------------------------------------------------------
                       ORCA ELECTRIC PROPERTIES CALCULATION
------------------------------------------------------------------------------

Dipole Moment Calculation                       ... on
Quadrupole Moment Calculation                   ... off
Polarizability Calculation                      ... off
GBWName                                         ... methane.gbw
Electron density file                           ... methane.pmp2re
The origin for moment calculation is the CENTER OF MASS  = ( 0.000000, -0.000000  0.000000)

-------------
DIPOLE MOMENT
-------------
                                X             Y             Z
Electronic contribution:      0.00000      -0.00000      -0.00000
Nuclear contribution   :     -0.00000       0.00000      -0.00000
                        -----------------------------------------
Total Dipole Moment    :     -0.00000      -0.00000      -0.00000
                        -----------------------------------------
Magnitude (a.u.)       :      0.00000
Magnitude (Debye)      :      0.00000



--------------------
Rotational spectrum 
--------------------
 
Rotational constants in cm-1:     5.300328     5.300328     5.300328 
Rotational constants in MHz : 158899.830241 158899.830240 158899.830238 

 Dipole components along the rotational axes: 
x,y,z [a.u.] :    -0.000000    -0.000000     0.000000 
x,y,z [Debye]:    -0.000000    -0.000000     0.000000 

 
------------------------------------------------------------------------------
                         ORCA MP2 H E S S I A N CALCULATION
------------------------------------------------------------------------------

Calculating analytic MP2 second derivatives ... (>methane.last_mp2) done

-----------------------
VIBRATIONAL FREQUENCIES
-----------------------

Scaling factor for frequencies =  1.000000000  (already applied!)

   0:         0.00 cm**-1
   1:         0.00 cm**-1
   2:         0.00 cm**-1
   3:         0.00 cm**-1
   4:         0.00 cm**-1
   5:         0.00 cm**-1
   6:      1374.00 cm**-1
   7:      1374.00 cm**-1
   8:      1374.00 cm**-1
   9:      1598.86 cm**-1
  10:      1598.86 cm**-1
  11:      3076.61 cm**-1
  12:      3206.27 cm**-1
  13:      3206.27 cm**-1
  14:      3206.27 cm**-1


------------
NORMAL MODES
------------

These modes are the Cartesian displacements weighted by the diagonal matrix
M(i,i)=1/sqrt(m[i]) where m[i] is the mass of the displaced atom
Thus, these vectors are normalized but *not* orthogonal

                  0          1          2          3          4          5    
      0       0.000000   0.000000   0.000000   0.000000   0.000000   0.000000
      1       0.000000   0.000000   0.000000   0.000000   0.000000   0.000000
      2       0.000000   0.000000   0.000000   0.000000   0.000000   0.000000
      3       0.000000   0.000000   0.000000   0.000000   0.000000   0.000000
      4       0.000000   0.000000   0.000000   0.000000   0.000000   0.000000
      5       0.000000   0.000000   0.000000   0.000000   0.000000   0.000000
      6       0.000000   0.000000   0.000000   0.000000   0.000000   0.000000
      7       0.000000   0.000000   0.000000   0.000000   0.000000   0.000000
      8       0.000000   0.000000   0.000000   0.000000   0.000000   0.000000
      9       0.000000   0.000000   0.000000   0.000000   0.000000   0.000000
     10       0.000000   0.000000   0.000000   0.000000   0.000000   0.000000
     11       0.000000   0.000000   0.000000   0.000000   0.000000   0.000000
     12       0.000000   0.000000   0.000000   0.000000   0.000000   0.000000
     13       0.000000   0.000000   0.000000   0.000000   0.000000   0.000000
     14       0.000000   0.000000   0.000000   0.000000   0.000000   0.000000
                  6          7          8          9         10         11    
      0       0.000268   0.087064  -0.089261  -0.000000   0.000000   0.000000
      1       0.001225   0.089255   0.087062   0.000000  -0.000000  -0.000000
      2       0.124684  -0.001064  -0.000663  -0.000000  -0.000000   0.000000
      3      -0.231036  -0.090922   0.429498   0.200734   0.355489  -0.288675
      4      -0.235670  -0.101534  -0.424574   0.207495  -0.351586  -0.288675
      5      -0.374208  -0.325645   0.006076   0.408230   0.003903   0.288675
      6      -0.235604  -0.423822   0.104777  -0.200734  -0.355489   0.288675
      7       0.228373  -0.430231  -0.094126   0.207495  -0.351586  -0.288675
      8      -0.369640   0.007255   0.330797  -0.408230  -0.003903  -0.288675
      9       0.229439  -0.427791   0.102303   0.200734   0.355489  -0.288675
     10      -0.236670  -0.426263  -0.091652  -0.207495   0.351586   0.288675
     11      -0.373208  -0.000916  -0.326846  -0.408230  -0.003903  -0.288675
     12       0.234007  -0.094891   0.427024  -0.200734  -0.355489   0.288675
     13       0.229373  -0.105503  -0.427048  -0.207495   0.351586   0.288675
     14      -0.368640   0.331984  -0.002125   0.408230   0.003903   0.288675
                  12         13         14    
      0       0.064826  -0.061885   0.022223
      1       0.065754   0.061062  -0.021768
      2       0.000107  -0.031108  -0.086938
      3      -0.401732  -0.108559  -0.273305
      4      -0.401547  -0.084094  -0.282058
      5       0.414652   0.090054   0.260427
      6       0.016187   0.279540  -0.411660
      7       0.009797  -0.279704   0.411750
      8      -0.003266  -0.298044   0.398782
      9       0.015509   0.477257   0.140903
     10       0.010475  -0.477421  -0.140813
     11       0.002630   0.483381   0.119181
     12      -0.402410   0.089159   0.279259
     13      -0.402225   0.113624   0.270505
     14      -0.415288   0.095283   0.257537


-----------
IR SPECTRUM
-----------

 Mode    freq (cm**-1)   T**2         TX         TY         TZ
-------------------------------------------------------------------
   6:      1374.00   14.302598  ( -0.008132  -0.037148  -3.781686)
   7:      1374.00   14.302598  ( -2.640663  -2.707112   0.032270)
   8:      1374.00   14.302597  (  2.707292  -2.640599   0.020117)
   9:      1598.86    0.000000  ( -0.000000   0.000000   0.000000)
  10:      1598.86    0.000000  ( -0.000000   0.000000   0.000000)
  11:      3076.61    0.000000  (  0.000000  -0.000000   0.000001)
  12:      3206.27   16.279005  (  2.832638   2.873177   0.004664)
  13:      3206.27   16.279006  ( -2.704111   2.668163  -1.359299)
  14:      3206.27   16.279006  (  0.971058  -0.951190  -3.798854)

The first frequency considered to be a vibration is 6
The total number of vibrations considered is 9


--------------------------
THERMOCHEMISTRY AT 298.15K
--------------------------

Temperature         ... 298.15 K
Pressure            ... 1.00 atm
Total Mass          ... 16.04 AMU

Throughout the following assumptions are being made:
  (1) The electronic state is orbitally nondegenerate
  (2) There are no thermally accessible electronically excited states
  (3) Hindered rotations indicated by low frequency modes are not
      treated as such but are treated as vibrations and this may
      cause some error
  (4) All equations used are the standard statistical mechanics
      equations for an ideal gas
  (5) All vibrations are strictly harmonic

freq.    1374.00  E(vib)   ...       0.01 
freq.    1374.00  E(vib)   ...       0.01 
freq.    1374.00  E(vib)   ...       0.01 
freq.    1598.86  E(vib)   ...       0.00 
freq.    1598.86  E(vib)   ...       0.00 
freq.    3076.61  E(vib)   ...       0.00 
freq.    3206.27  E(vib)   ...       0.00 
freq.    3206.27  E(vib)   ...       0.00 
freq.    3206.27  E(vib)   ...       0.00 

------------
INNER ENERGY
------------

The inner energy is: U= E(el) + E(ZPE) + E(vib) + E(rot) + E(trans)
    E(el)   - is the total energy from the electronic structure calculation
              = E(kin-el) + E(nuc-el) + E(el-el) + E(nuc-nuc)
    E(ZPE)  - the the zero temperature vibrational energy from the frequency calculation
    E(vib)  - the the finite temperature correction to E(ZPE) due to population
              of excited vibrational states
    E(rot)  - is the rotational thermal energy
    E(trans)- is the translational thermal energy

Summary of contributions to the inner energy U:
Electronic energy                ...    -40.40772968 Eh
Zero point energy                ...      0.04559782 Eh      28.61 kcal/mol
Thermal vibrational correction   ...      0.00003133 Eh       0.02 kcal/mol
Thermal rotational correction    ...      0.00141627 Eh       0.89 kcal/mol
Thermal translational correction ...      0.00141627 Eh       0.89 kcal/mol
-----------------------------------------------------------------------
Total thermal energy                    -40.35926799 Eh


Summary of corrections to the electronic energy:
(perhaps to be used in another calculation)
Total thermal correction                  0.00286388 Eh       1.80 kcal/mol
Non-thermal (ZPE) correction              0.04559782 Eh      28.61 kcal/mol
-----------------------------------------------------------------------
Total correction                          0.04846169 Eh      30.41 kcal/mol


--------
ENTHALPY
--------

The enthalpy is H = U + kB*T
                kB is Boltzmann's constant
Total free energy                 ...    -40.35926799 Eh 
Thermal Enthalpy correction       ...      0.00094421 Eh       0.59 kcal/mol
-----------------------------------------------------------------------
Total Enthalpy                    ...    -40.35832378 Eh


Note: Rotational entropy computed according to Herzberg 
Infrared and Raman Spectra, Chapter V,1, Van Nostrand Reinhold, 1945 
Point Group:  Td, Symmetry Number:  12  
Rotational constants in cm-1:     5.300328     5.300328     5.300328 

Vibrational entropy computed according to the QRRHO of S. Grimme
Chem.Eur.J. 2012 18 9955


-------
ENTROPY
-------

The entropy contributions are T*S = T*(S(el)+S(vib)+S(rot)+S(trans))
     S(el)   - electronic entropy
     S(vib)  - vibrational entropy
     S(rot)  - rotational entropy
     S(trans)- translational entropy
The entropies will be listed as mutliplied by the temperature to get
units of energy

Electronic entropy                ...      0.00000000 Eh      0.00 kcal/mol
Vibrational entropy               ...      0.00003592 Eh      0.02 kcal/mol
Rotational entropy                ...      0.00480260 Eh      3.01 kcal/mol
Translational entropy             ...      0.01627961 Eh     10.22 kcal/mol
-----------------------------------------------------------------------
Final entropy term                ...      0.02111813 Eh     13.25 kcal/mol

In case the symmetry of your molecule has not been determined correctly
or in case you have a reason to use a different symmetry number we print 
out the resulting rotational entropy values for sn=1,12 :
 --------------------------------------------------------
|  sn= 1 | S(rot)=       0.00714880 Eh      4.49 kcal/mol|
|  sn= 2 | S(rot)=       0.00649434 Eh      4.08 kcal/mol|
|  sn= 3 | S(rot)=       0.00611151 Eh      3.84 kcal/mol|
|  sn= 4 | S(rot)=       0.00583988 Eh      3.66 kcal/mol|
|  sn= 5 | S(rot)=       0.00562920 Eh      3.53 kcal/mol|
|  sn= 6 | S(rot)=       0.00545705 Eh      3.42 kcal/mol|
|  sn= 7 | S(rot)=       0.00531151 Eh      3.33 kcal/mol|
|  sn= 8 | S(rot)=       0.00518543 Eh      3.25 kcal/mol|
|  sn= 9 | S(rot)=       0.00507422 Eh      3.18 kcal/mol|
|  sn=10 | S(rot)=       0.00497474 Eh      3.12 kcal/mol|
|  sn=11 | S(rot)=       0.00488475 Eh      3.07 kcal/mol|
|  sn=12 | S(rot)=       0.00480260 Eh      3.01 kcal/mol|
 --------------------------------------------------------


-------------------
GIBBS FREE ENERGY
-------------------

The Gibbs free energy is G = H - T*S

Total enthalpy                    ...    -40.35832378 Eh 
Total entropy correction          ...     -0.02111813 Eh    -13.25 kcal/mol
-----------------------------------------------------------------------
Final Gibbs free energy         ...    -40.37944191 Eh

For completeness - the Gibbs free energy minus the electronic energy
G-E(el)                           ...      0.02828777 Eh     17.75 kcal/mol


Timings for individual modules:

Sum of individual times         ...       35.823 sec (=   0.597 min)
GTO integral calculation        ...        2.211 sec (=   0.037 min)   6.2 %
SCF iterations                  ...        8.589 sec (=   0.143 min)  24.0 %
MP2 module                      ...        7.639 sec (=   0.127 min)  21.3 %
Geometry relaxation             ...        0.059 sec (=   0.001 min)   0.2 %
Analytical frequency calculation...       17.324 sec (=   0.289 min)  48.4 %
                             ****ORCA TERMINATED NORMALLY****
TOTAL RUN TIME: 0 days 0 hours 0 minutes 36 seconds 391 msec
