
                                 *****************
                                 * O   R   C   A *
                                 *****************

           --- An Ab Initio, DFT and Semiempirical electronic structure package ---

                  #######################################################
                  #                        -***-                        #
                  #          Department of theory and spectroscopy      #
                  #               Directorship: Frank Neese             #
                  #        Max Planck Institute fuer Kohlenforschung    #
                  #                Kaiser Wilhelm Platz 1               #
                  #                 D-45470 Muelheim/Ruhr               #
                  #                      Germany                        #
                  #                                                     #
                  #                  All rights reserved                #
                  #                        -***-                        #
                  #######################################################


                         Program Version 4.2.1 -  RELEASE  -


 With contributions from (in alphabetic order):
   Daniel Aravena         : Magnetic Suceptibility
   Michael Atanasov       : Ab Initio Ligand Field Theory (pilot matlab implementation)
   Alexander A. Auer      : GIAO ZORA, VPT2
   Ute Becker             : Parallelization
   Giovanni Bistoni       : ED, misc. LED, open-shell LED, HFLD
   Martin Brehm           : Molecular dynamics
   Dmytro Bykov           : SCF Hessian
   Vijay G. Chilkuri      : MRCI spin determinant printing, contributions to CSF-ICE
   Dipayan Datta          : RHF DLPNO-CCSD density
   Achintya Kumar Dutta   : EOM-CC, STEOM-CC
   Dmitry Ganyushin       : Spin-Orbit,Spin-Spin,Magnetic field MRCI
   Miquel Garcia          : C-PCM Hessian, Gaussian charge scheme
   Yang Guo               : DLPNO-NEVPT2, CIM, IAO-localization
   Andreas Hansen         : Spin unrestricted coupled pair/coupled cluster methods
   Benjamin Helmich-Paris : CASSCF linear response (MC-RPA)
   Lee Huntington         : MR-EOM, pCC
   Robert Izsak           : Overlap fitted RIJCOSX, COSX-SCS-MP3, EOM
   Christian Kollmar      : KDIIS, OOCD, Brueckner-CCSD(T), CCSD density
   Simone Kossmann        : Meta GGA functionals, TD-DFT gradient, OOMP2, MP2 Hessian
   Martin Krupicka        : AUTO-CI
   Lucas Lang             : DCDCAS
   Dagmar Lenk            : GEPOL surface, SMD
   Dimitrios Liakos       : Extrapolation schemes; Compound Job, initial MDCI parallelization
   Dimitrios Manganas     : Further ROCIS development; embedding schemes
   Dimitrios Pantazis     : SARC Basis sets
   Taras Petrenko         : DFT Hessian,TD-DFT gradient, ASA, ECA, R-Raman, ABS, FL, XAS/XES, NRVS
   Peter Pinski           : DLPNO-MP2, DLPNO-MP2 Gradient
   Christoph Reimann      : Effective Core Potentials
   Marius Retegan         : Local ZFS, SOC
   Christoph Riplinger    : Optimizer, TS searches, QM/MM, DLPNO-CCSD(T), (RO)-DLPNO pert. Triples
   Tobias Risthaus        : Range-separated hybrids, TD-DFT gradient, RPA, STAB
   Michael Roemelt        : Original ROCIS implementation
   Masaaki Saitow         : Open-shell DLPNO-CCSD energy and density
   Barbara Sandhoefer     : DKH picture change effects
   Avijit Sen             : IP-ROCIS
   Kantharuban Sivalingam : CASSCF convergence, NEVPT2, FIC-MRCI
   Bernardo de Souza      : ESD, SOC TD-DFT
   Georgi Stoychev        : AutoAux, RI-MP2 NMR
   Willem Van den Heuvel  : Paramagnetic NMR
   Boris Wezisla          : Elementary symmetry handling
   Frank Wennmohs         : Technical directorship


 We gratefully acknowledge several colleagues who have allowed us to
 interface, adapt or use parts of their codes:
   Stefan Grimme, W. Hujo, H. Kruse,             : VdW corrections, initial TS optimization,
                  C. Bannwarth                     DFT functionals, gCP, sTDA/sTD-DF
   Ed Valeev, F. Pavosevic, A. Kumar             : LibInt (2-el integral package), F12 methods
   Garnet Chan, S. Sharma, J. Yang, R. Olivares  : DMRG
   Ulf Ekstrom                                   : XCFun DFT Library
   Mihaly Kallay                                 : mrcc  (arbitrary order and MRCC methods)
   Andreas Klamt, Michael Diedenhofen            : otool_cosmo (COSMO solvation model)
   Jiri Pittner, Ondrej Demel                    : Mk-CCSD
   Frank Weinhold                                : gennbo (NPA and NBO analysis)
   Christopher J. Cramer and Donald G. Truhlar   : smd solvation model
   Lars Goerigk                                  : TD-DFT with DH, B97 family of functionals
   V. Asgeirsson, H. Jonsson                     : NEB implementation
   FAccTs GmbH                                   : IRC, NEB, NEB-TS, Multilevel, MM, QM/MM, CI optimization
   S Lehtola, MJT Oliveira, MAL Marques          : LibXC Library


 Your calculation uses the libint2 library for the computation of 2-el integrals
 For citations please refer to: http://libint.valeyev.net

 Your ORCA version has been built with support for libXC version: 4.2.3
 For citations please refer to: https://tddft.org/programs/libxc/

 This ORCA versions uses:
   CBLAS   interface :  Fast vector & matrix operations
   LAPACKE interface :  Fast linear algebra routines
   SCALAPACK package :  Parallel linear algebra routines




***************************************
The coordinates will be read from file: init.xyz
***************************************


Your calculation utilizes the geometrical counterpoise correction gCP
Please cite in your paper:
H.Kruse, S. Grimme J.Chem.Phys., 136, (2012), 154101 
   

Your calculation utilizes the atom-pairwise dispersion correction
with the Becke-Johnson damping scheme (D3BJ)
Cite in your paper:
S.Grimme, S.Ehrlich, L.Goerigk, J Comput Chem, (2011), 32, 1456–1465 
S.Grimme, J.Antony, S.Ehrlich and H.Krieg, J.Chem.Phys., 132, (2010), 154104 
   

----- Orbital basis set information -----
Your calculation utilizes the basis: def2-TZVP
   F. Weigend and R. Ahlrichs, Phys. Chem. Chem. Phys. 7, 3297 (2005).

================================================================================
                                        WARNINGS
                       Please study these warnings very carefully!
================================================================================


WARNING: Geometry Optimization
  ===> : Switching off AutoStart
         For restart on a previous wavefunction, please use MOREAD

INFO   : the flag for use of LIBINT has been found!

================================================================================
                                       INPUT FILE
================================================================================
NAME = NH3.inp
|  1> ! wB97X-D3BJ gCP(DFT/TZ) def2-TZVP Opt Freq TightOpt TightSCF Grid4 FinalGrid5 PrintBasis PrintMOs NBO
|  2> 
|  3> %pal
|  4>  nprocs 12
|  5> end
|  6> 
|  7> *xyzfile 0 1 init.xyz
|  8> 
|  9>                          ****END OF INPUT****
================================================================================

                       *****************************
                       * Geometry Optimization Run *
                       *****************************

Geometry optimization settings:
Update method            Update   .... BFGS
Choice of coordinates    CoordSys .... Z-matrix Internals
Initial Hessian          InHess   .... Almoef's Model

Convergence Tolerances:
Energy Change            TolE     ....  1.0000e-06 Eh
Max. Gradient            TolMAXG  ....  1.0000e-04 Eh/bohr
RMS Gradient             TolRMSG  ....  3.0000e-05 Eh/bohr
Max. Displacement        TolMAXD  ....  1.0000e-03 bohr
RMS Displacement         TolRMSD  ....  6.0000e-04 bohr
Strict Convergence                ....  False
------------------------------------------------------------------------------
                        ORCA OPTIMIZATION COORDINATE SETUP
------------------------------------------------------------------------------

The optimization will be done in new redundant internal coordinates
Making redundant internal coordinates   ...  (new redundants) done
Evaluating the initial hessian          ...  (Almloef) done
Evaluating the coordinates              ...  done
Calculating the B-matrix                .... done
Calculating the G-matrix                .... done
Diagonalizing the G-matrix              .... done
The first mode is                       ....    1
The number of degrees of freedom        ....    6

    -----------------------------------------------------------------
                    Redundant Internal Coordinates


    -----------------------------------------------------------------
         Definition                    Initial Value    Approx d2E/dq
    -----------------------------------------------------------------
      1. B(H   1,N   0)                  1.0432         0.383077   
      2. B(H   2,N   0)                  1.0432         0.383068   
      3. B(H   3,N   0)                  1.0432         0.383084   
      4. A(H   1,N   0,H   3)          108.1062         0.291762   
      5. A(H   2,N   0,H   3)          108.1060         0.291761   
      6. A(H   1,N   0,H   2)          108.1057         0.291760   
      7. I(H   1,H   3,H   2,N   0)    -58.0353         0.004102   
    -----------------------------------------------------------------

Number of atoms                         .... 4
Number of degrees of freedom            .... 7

         *************************************************************
         *                GEOMETRY OPTIMIZATION CYCLE   1            *
         *************************************************************
---------------------------------
CARTESIAN COORDINATES (ANGSTROEM)
---------------------------------
  N     -2.442390   -2.778370    0.009920
  H     -1.399510   -2.799930   -0.001230
  H     -2.778580   -3.621000    0.524850
  H     -2.778580   -2.844980   -0.975330

----------------------------
CARTESIAN COORDINATES (A.U.)
----------------------------
  NO LB      ZA    FRAG     MASS         X           Y           Z
   0 N     7.0000    0    14.007   -4.615448   -5.250358    0.018746
   1 H     1.0000    0     1.008   -2.644691   -5.291101   -0.002324
   2 H     1.0000    0     1.008   -5.250755   -6.842698    0.991823
   3 H     1.0000    0     1.008   -5.250755   -5.376233   -1.843107

--------------------------------
INTERNAL COORDINATES (ANGSTROEM)
--------------------------------
 N      0   0   0     0.000000000000     0.00000000     0.00000000
 H      1   0   0     1.043162427669     0.00000000     0.00000000
 H      1   2   0     1.043169179903   108.10574379     0.00000000
 H      1   2   3     1.043157788017   108.10616907   243.19814213

---------------------------
INTERNAL COORDINATES (A.U.)
---------------------------
 N      0   0   0     0.000000000000     0.00000000     0.00000000
 H      1   0   0     1.971291301491     0.00000000     0.00000000
 H      1   2   0     1.971304061364   108.10574379     0.00000000
 H      1   2   3     1.971282533819   108.10616907   243.19814213

---------------------
BASIS SET INFORMATION
---------------------
There are 2 groups of distinct atoms

 Group   1 Type N   : 11s6p2d1f contracted to 5s3p2d1f pattern {62111/411/11/1}
 Group   2 Type H   : 5s1p contracted to 3s1p pattern {311/1}

Atom   0N    basis set group =>   1
Atom   1H    basis set group =>   2
Atom   2H    basis set group =>   2
Atom   3H    basis set group =>   2

-------------------------
BASIS SET IN INPUT FORMAT
-------------------------

 # Basis set for element : H 
 NewGTO H 
 S 3 
   1      34.0613410000      0.0254393072
   2       5.1235746000      0.1900859489
   3       1.1646626000      0.8524411301
 S 1 
   1       0.3272304100      1.0000000000
 S 1 
   1       0.1030724100      1.0000000000
 P 1 
   1       0.8000000000      1.0000000000
  end;

 # Basis set for element : N 
 NewGTO N 
 S 6 
   1   19730.8006470000      0.0005862639
   2    2957.8958745000      0.0045428821
   3     673.2213359500      0.0235584136
   4     190.6824949400      0.0947091933
   5      62.2954418980      0.2971978492
   6      22.6541611820      0.6691624689
 S 2 
   1       8.9791477428      0.6459668363
   2       3.6863002370      0.3870057440
 S 1 
   1       0.8466007680      1.0000000000
 S 1 
   1       0.3364713377      1.0000000000
 S 1 
   1       0.1364765367      1.0000000000
 P 4 
   1      49.2003805100      0.0114488252
   2      11.3467905370      0.0784223379
   3       3.4273972411      0.3081809474
   4       1.1785525134      0.7202719637
 P 1 
   1       0.4164220497      1.0000000000
 P 1 
   1       0.1426082601      1.0000000000
 D 1 
   1       1.6540000000      1.0000000000
 D 1 
   1       0.4690000000      1.0000000000
 F 1 
   1       1.0930000000      1.0000000000
  end;



           ************************************************************
           *        Program running with 12 parallel MPI-processes    *
           *              working on a common directory               *
           ************************************************************
------------------------------------------------------------------------------
                           ORCA GTO INTEGRAL CALCULATION
------------------------------------------------------------------------------

                         BASIS SET STATISTICS AND STARTUP INFO

 # of primitive gaussian shells          ...   38
 # of primitive gaussian functions       ...   70
 # of contracted shells                  ...   23
 # of contracted basis functions         ...   49
 Highest angular momentum                ...    3
 Maximum contraction depth               ...    6
 Integral package used                   ... LIBINT
 Integral threshhold            Thresh   ...  2.500e-11
 Primitive cut-off              TCut     ...  2.500e-12


------------------------------ INTEGRAL EVALUATION ----------------------------


 * One electron integrals 
 Pre-screening matrix                    ... done
 Shell pair data                         ... done (   0.000 sec)



           ************************************************************
           *        Program running with 12 parallel MPI-processes    *
           *              working on a common directory               *
           ************************************************************
-------------------------------------------------------------------------------
                                 ORCA SCF
-------------------------------------------------------------------------------

------------
SCF SETTINGS
------------
Hamiltonian:
 Density Functional     Method          .... DFT(GTOs)
 Exchange Functional    Exchange        .... WB97X-V
 Correlation Functional Correlation     .... WB97X-V
 Gradients option       PostSCFGGA      .... off
 Hybrid DFT is turned on
   Fraction HF Exchange ScalHFX         ....  0.167000
   Scaling of DF-GGA-X  ScalDFX         ....  0.000000
   Scaling of DF-GGA-C  ScalDFC         ....  1.000000
   Scaling of DF-LDA-C  ScalLDAC        ....  1.000000
   Perturbative correction              ....  0.000000
   Density functional embedding theory  .... OFF
 Long-range corrected/Screened/Range-Separated Hybrid DFT is turned on
   Amount of maximum screened exact exchange              ....  0.833000
   Range separation parameter mu (erf(mu*r12)/r12)        ....  0.300000


General Settings:
 Integral files         IntName         .... NH3
 Hartree-Fock type      HFTyp           .... RHF
 Total Charge           Charge          ....    0
 Multiplicity           Mult            ....    1
 Number of Electrons    NEL             ....   10
 Basis Dimension        Dim             ....   49
 Nuclear Repulsion      ENuc            ....     11.5928287059 Eh

Convergence Acceleration:
 DIIS                   CNVDIIS         .... on
   Start iteration      DIISMaxIt       ....    12
   Startup error        DIISStart       ....  0.200000
   # of expansion vecs  DIISMaxEq       ....     5
   Bias factor          DIISBfac        ....   1.050
   Max. coefficient     DIISMaxC        ....  10.000
 Newton-Raphson         CNVNR           .... off
 SOSCF                  CNVSOSCF        .... on
   Start iteration      SOSCFMaxIt      ....   150
   Startup grad/error   SOSCFStart      ....  0.003300
 Level Shifting         CNVShift        .... on
   Level shift para.    LevelShift      ....    0.2500
   Turn off err/grad.   ShiftErr        ....    0.0010
 Zerner damping         CNVZerner       .... off
 Static damping         CNVDamp         .... on
   Fraction old density DampFac         ....    0.7000
   Max. Damping (<1)    DampMax         ....    0.9800
   Min. Damping (>=0)   DampMin         ....    0.0000
   Turn off err/grad.   DampErr         ....    0.1000
 Fernandez-Rico         CNVRico         .... off

SCF Procedure:
 Maximum # iterations   MaxIter         ....   125
 SCF integral mode      SCFMode         .... Direct
   Integral package                     .... LIBINT
 Reset frequency        DirectResetFreq ....    20
 Integral Threshold     Thresh          ....  2.500e-11 Eh
 Primitive CutOff       TCut            ....  2.500e-12 Eh

Convergence Tolerance:
 Convergence Check Mode ConvCheckMode   .... Total+1el-Energy
 Convergence forced     ConvForced      .... 0
 Energy Change          TolE            ....  1.000e-08 Eh
 1-El. energy change                    ....  1.000e-05 Eh
 Orbital Gradient       TolG            ....  1.000e-05
 Orbital Rotation angle TolX            ....  1.000e-05
 DIIS Error             TolErr          ....  5.000e-07


Diagonalization of the overlap matrix:
Smallest eigenvalue                        ... 5.425e-03
Time for diagonalization                   ...    0.002 sec
Threshold for overlap eigenvalues          ... 1.000e-08
Number of eigenvalues below threshold      ... 0
Time for construction of square roots      ...    0.011 sec
Total time needed                          ...    0.015 sec

-------------------
DFT GRID GENERATION
-------------------

General Integration Accuracy     IntAcc      ...  4.670
Radial Grid Type                 RadialGrid  ... Gauss-Chebyshev
Angular Grid (max. acc.)         AngularGrid ... Lebedev-302
Angular grid pruning method      GridPruning ... 3 (G Style)
Weight generation scheme         WeightScheme... Becke
Basis function cutoff            BFCut       ...    1.0000e-11
Integration weight cutoff        WCut        ...    1.0000e-14
Grids for H and He will be reduced by one unit

# of grid points (after initial pruning)     ...  16394 (   0.0 sec)
# of grid points (after weights+screening)   ...  16138 (   0.0 sec)
nearest neighbour list constructed           ...    0.0 sec
Grid point re-assignment to atoms done       ...    0.0 sec
Grid point division into batches done        ...    0.1 sec
Reduced shell lists constructed in    0.1 sec

Total number of grid points                  ...    16138
Total number of batches                      ...      255
Average number of points per batch           ...       63
Average number of grid points per atom       ...     4034
Average number of shells per batch           ...    19.22 (83.55%)
Average number of basis functions per batch  ...    41.39 (84.47%)
Average number of large shells per batch     ...    18.04 (93.89%)
Average number of large basis fcns per batch ...    39.35 (95.06%)
Maximum spatial batch extension              ...  12.09, 11.51, 13.38 au
Average spatial batch extension              ...   0.28,  0.27,  0.28 au

Time for grid setup =    0.228 sec

------------------------------
INITIAL GUESS: MODEL POTENTIAL
------------------------------
Loading Hartree-Fock densities                     ... done
Calculating cut-offs                               ... done
Setting up the integral package                    ... done
Initializing the effective Hamiltonian             ... done
Starting the Coulomb interaction                   ... done (   0.0 sec)
Reading the grid                                   ... done
Mapping shells                                     ... done
Starting the XC term evaluation                    ... done (   0.0 sec)
  promolecular density results
     # of electrons  =      9.998533971
     EX              =     -4.880705653
     EC              =     -0.381518558
     EX+EC           =     -5.262224211
Transforming the Hamiltonian                       ... done (   0.0 sec)
Diagonalizing the Hamiltonian                      ... done (   0.0 sec)
Back transforming the eigenvectors                 ... done (   0.0 sec)
Now organizing SCF variables                       ... done
                      ------------------
                      INITIAL GUESS DONE (   0.5 sec)
                      ------------------
--------------
SCF ITERATIONS
--------------
ITER       Energy         Delta-E        Max-DP      RMS-DP      [F,P]     Damp
               ***  Starting incremental Fock matrix formation  ***
  0    -56.5823496927   0.000000000000 0.01216582  0.00092886  0.2924221 0.7000
  1    -56.5889493093  -0.006599616598 0.01000938  0.00070195  0.2070486 0.7000
                               ***Turning on DIIS***
  2    -56.5923936294  -0.003444320096 0.00721041  0.00043954  0.1455902 0.7000
  3    -56.5945151918  -0.002121562403 0.00500869  0.00029497  0.1013781 0.7000
  4    -56.5959808168  -0.001465625004 0.01009381  0.00073849  0.0697046 0.0000
                      *** Initiating the SOSCF procedure ***
                           *** Shutting down DIIS ***
                      *** Re-Reading the Fockian *** 
                      *** Removing any level shift *** 
ITER      Energy       Delta-E        Grad      Rot      Max-DP    RMS-DP
  5    -56.59944165  -0.0034608295  0.001090  0.001090  0.001256  0.000092
               *** Restarting incremental Fock matrix formation ***
  6    -56.59945435  -0.0000127034  0.000648  0.000788  0.001075  0.000053
  7    -56.59945562  -0.0000012739  0.000287  0.000284  0.000294  0.000025
  8    -56.59945627  -0.0000006427  0.000051  0.000076  0.000116  0.000007
                 **** Energy Check signals convergence ****
              ***Rediagonalizing the Fockian in SOSCF/NRSCF***

               *****************************************************
               *                     SUCCESS                       *
               *           SCF CONVERGED AFTER   9 CYCLES          *
               *****************************************************

Setting up the final grid:

General Integration Accuracy     IntAcc      ...  5.010
Radial Grid Type                 RadialGrid  ... Gauss-Chebyshev
Angular Grid (max. acc.)         AngularGrid ... Lebedev-434
Angular grid pruning method      GridPruning ... 3 (G Style)
Weight generation scheme         WeightScheme... Becke
Basis function cutoff            BFCut       ...    1.0000e-11
Integration weight cutoff        WCut        ...    1.0000e-14
Grids for H and He will be reduced by one unit

# of grid points (after initial pruning)     ...  30666 (   0.0 sec)
# of grid points (after weights+screening)   ...  30125 (   0.0 sec)
nearest neighbour list constructed           ...    0.0 sec
Grid point re-assignment to atoms done       ...    0.0 sec
Grid point division into batches done        ...    0.5 sec
Reduced shell lists constructed in    0.5 sec

Total number of grid points                  ...    30125
Total number of batches                      ...      473
Average number of points per batch           ...       63
Average number of grid points per atom       ...     7531
Average number of shells per batch           ...    18.88 (82.08%)
Average number of basis functions per batch  ...    40.83 (83.33%)
Average number of large shells per batch     ...    17.71 (93.80%)
Average number of large basis fcns per batch ...    38.49 (94.27%)
Maximum spatial batch extension              ...  13.82, 12.80, 13.82 au
Average spatial batch extension              ...   0.21,  0.22,  0.23 au

Final grid set up in    0.7 sec
Final integration                            ... done (   0.1 sec)
Change in XC energy                          ...     0.000004427
Integrated number of electrons               ...     9.999998765
Previous integrated no of electrons          ...     9.999984828

----------------
TOTAL SCF ENERGY
----------------

Total Energy       :          -56.59945185 Eh           -1540.14938 eV

Components:
Nuclear Repulsion  :           11.59282871 Eh             315.45691 eV
Electronic Energy  :          -68.19228055 Eh           -1855.60629 eV
One Electron Energy:          -99.03015944 Eh           -2694.74764 eV
Two Electron Energy:           30.83787888 Eh             839.14135 eV

Virial components:
Potential Energy   :         -112.79674660 Eh           -3069.35552 eV
Kinetic Energy     :           56.19729476 Eh            1529.20613 eV
Virial Ratio       :            2.00715616


DFT components:
N(Alpha)           :        4.999999382671 electrons
N(Beta)            :        4.999999382671 electrons
N(Total)           :        9.999998765341 electrons
E(X)               :       -5.049354948363 Eh       
E(C)               :       -0.391865364056 Eh       
E(XC)              :       -5.441220312419 Eh       
DFET-embed. en.    :        0.000000000000 Eh       

---------------
SCF CONVERGENCE
---------------

  Last Energy change         ...   -9.5338e-09  Tolerance :   1.0000e-08
  Last MAX-Density change    ...    5.3821e-05  Tolerance :   1.0000e-07
  Last RMS-Density change    ...    3.2459e-06  Tolerance :   5.0000e-09
  Last Orbital Gradient      ...    1.1408e-05  Tolerance :   1.0000e-05
  Last Orbital Rotation      ...    4.1578e-05  Tolerance :   1.0000e-05

             **** THE GBW FILE WAS UPDATED (NH3.gbw) ****
             **** DENSITY FILE WAS UPDATED (NH3.scfp) ****
             **** ENERGY FILE WAS UPDATED (NH3.en.tmp) ****
             **** THE GBW FILE WAS UPDATED (NH3.gbw) ****
             **** DENSITY FILE WAS UPDATED (NH3.scfp) ****
----------------
ORBITAL ENERGIES
----------------

  NO   OCC          E(Eh)            E(eV) 
   0   2.0000     -14.393657      -391.6713 
   1   2.0000      -0.968676       -26.3590 
   2   2.0000      -0.564976       -15.3738 
   3   2.0000      -0.564973       -15.3737 
   4   2.0000      -0.372952       -10.1485 
   5   0.0000       0.101413         2.7596 
   6   0.0000       0.184483         5.0200 
   7   0.0000       0.184485         5.0201 
   8   0.0000       0.389497        10.5988 
   9   0.0000       0.389506        10.5990 
  10   0.0000       0.449941        12.2435 
  11   0.0000       0.530687        14.4407 
  12   0.0000       0.583680        15.8827 
  13   0.0000       0.610191        16.6041 
  14   0.0000       0.610195        16.6043 
  15   0.0000       1.008066        27.4309 
  16   0.0000       1.008066        27.4309 
  17   0.0000       1.254891        34.1473 
  18   0.0000       1.360274        37.0149 
  19   0.0000       1.360279        37.0151 
  20   0.0000       1.679197        45.6933 
  21   0.0000       1.809902        49.2499 
  22   0.0000       1.809907        49.2501 
  23   0.0000       1.916080        52.1392 
  24   0.0000       2.071556        56.3699 
  25   0.0000       2.145076        58.3705 
  26   0.0000       2.145084        58.3707 
  27   0.0000       2.384898        64.8964 
  28   0.0000       2.453414        66.7608 
  29   0.0000       2.453427        66.7611 
  30   0.0000       2.502287        68.0907 
  31   0.0000       2.539671        69.1080 
  32   0.0000       2.539681        69.1082 
  33   0.0000       3.063919        83.3735 
  34   0.0000       3.287686        89.4625 
  35   0.0000       3.287689        89.4626 
  36   0.0000       4.159106       113.1750 
  37   0.0000       4.381445       119.2252 
  38   0.0000       4.381456       119.2255 
  39   0.0000       4.509570       122.7116 
  40   0.0000       4.704702       128.0214 
  41   0.0000       4.704715       128.0218 
  42   0.0000       4.725565       128.5892 
  43   0.0000       4.946872       134.6112 
  44   0.0000       4.946883       134.6115 
  45   0.0000       5.390814       146.6915 
  46   0.0000       5.390827       146.6919 
  47   0.0000       5.769371       156.9926 
  48   0.0000      31.569372       859.0463 
------------------
MOLECULAR ORBITALS
------------------
                      0         1         2         3         4         5   
                 -14.39366  -0.96868  -0.56498  -0.56497  -0.37295   0.10141
                   2.00000   2.00000   2.00000   2.00000   2.00000   0.00000
                  --------  --------  --------  --------  --------  --------
  0N   1s        -0.449842 -0.094438 -0.000000  0.000000 -0.030788 -0.040389
  0N   2s        -0.626201 -0.213066 -0.000000  0.000001 -0.070825 -0.099173
  0N   3s        -0.032335  0.320143 -0.000002  0.000001  0.113853  0.270768
  0N   4s         0.020179  0.392155  0.000008 -0.000007  0.178777 -0.248784
  0N   5s        -0.013210  0.123646 -0.000003  0.000003  0.137667  2.159416
  0N   1pz        0.000731 -0.027964  0.229815 -0.203672  0.174622 -0.045418
  0N   1px       -0.000563  0.021518  0.250799  0.200699 -0.134371  0.034951
  0N   1py        0.001413 -0.054057 -0.019049  0.185243  0.337576 -0.087812
  0N   2pz       -0.000554 -0.024599  0.184458 -0.163479  0.148232 -0.013908
  0N   2px        0.000427  0.018930  0.201305  0.161093 -0.114062  0.010700
  0N   2py       -0.001072 -0.047556 -0.015290  0.148687  0.286556 -0.026899
  0N   3pz        0.000692 -0.004439  0.087995 -0.077987  0.149419 -0.175407
  0N   3px       -0.000532  0.003415  0.096032  0.076848 -0.114976  0.134974
  0N   3py        0.001337 -0.008579 -0.007292  0.070930  0.288851 -0.339135
  0N   1dz2      -0.000026  0.000837 -0.011009  0.002439  0.000793 -0.000857
  0N   1dxz      -0.000029  0.000958 -0.004608  0.002090  0.000907 -0.000981
  0N   1dyz       0.000074 -0.002405 -0.003331  0.006529 -0.002279  0.002464
  0N   1dx2y2    -0.000060  0.001956  0.004760  0.010303  0.001853 -0.002004
  0N   1dxy      -0.000057  0.001851 -0.002001 -0.004590  0.001753 -0.001896
  0N   2dz2       0.000004  0.001149 -0.014502  0.009251  0.006456 -0.003506
  0N   2dxz       0.000005  0.001315 -0.003957 -0.007126  0.007390 -0.004013
  0N   2dyz      -0.000012 -0.003306 -0.011343  0.007974 -0.018563  0.010080
  0N   2dx2y2     0.000010  0.002690  0.005907  0.016768  0.015101 -0.008205
  0N   2dxy       0.000009  0.002545 -0.012383 -0.007862  0.014285 -0.007757
  0N   1f0        0.000017 -0.002697  0.000602  0.000123  0.001957  0.002894
  0N   1f+1       0.000024 -0.002663  0.000757 -0.001040 -0.000516  0.004049
  0N   1f-1       0.000004 -0.000495 -0.001374  0.001394  0.000088  0.000663
  0N   1f+2       0.000010 -0.001976  0.001160  0.000809  0.002340  0.001680
  0N   1f-2      -0.000010  0.000354 -0.000199 -0.001633  0.002588 -0.001763
  0N   1f+3       0.000019 -0.003029 -0.001742 -0.000119  0.002325  0.003189
  0N   1f-3       0.000004 -0.000050 -0.000895 -0.001293 -0.001324  0.000715
  1H   1s        -0.000250  0.086787  0.132873  0.106330 -0.042598 -0.023796
  1H   2s        -0.000172  0.081059  0.179175  0.143385 -0.048814  0.003544
  1H   3s         0.002262  0.012107  0.073660  0.058945 -0.028268 -1.025237
  1H   1pz        0.000006 -0.000719  0.008868 -0.007580  0.008474 -0.000501
  1H   1px       -0.000249 -0.015193 -0.016614 -0.013296  0.001818 -0.038422
  1H   1py        0.000012 -0.001392 -0.000403  0.007270  0.016382 -0.000969
  2H   1s        -0.000250  0.086785  0.025649 -0.168236 -0.042598 -0.023798
  2H   2s        -0.000172  0.081057  0.034586 -0.226859 -0.048809  0.003521
  2H   3s         0.002262  0.012109  0.014221 -0.093268 -0.028274 -1.025265
  2H   1pz       -0.000118 -0.008729  0.006182  0.008813  0.012716 -0.020238
  2H   1px        0.000077  0.005804  0.011144 -0.003207 -0.009300  0.013321
  2H   1py        0.000206  0.011108  0.003322 -0.019505  0.009763  0.029834
  3H   1s        -0.000250  0.086788 -0.158521  0.061906 -0.042597 -0.023795
  3H   2s        -0.000172  0.081060 -0.213764  0.083476 -0.048808  0.003531
  3H   3s         0.002262  0.012107 -0.087878  0.034319 -0.028270 -1.025229
  3H   1pz        0.000237  0.014112 -0.020692  0.003766  0.000622  0.036045
  3H   1px        0.000077  0.005804 -0.000687  0.011576 -0.009300  0.013322
  3H   1py        0.000023 -0.000706 -0.002452  0.007691  0.016020  0.000721
                      6         7         8         9        10        11   
                   0.18448   0.18448   0.38950   0.38951   0.44994   0.53069
                   0.00000   0.00000   0.00000   0.00000   0.00000   0.00000
                  --------  --------  --------  --------  --------  --------
  0N   1s         0.000001 -0.000000  0.000001 -0.000000 -0.028072  0.058044
  0N   2s         0.000002  0.000000  0.000002  0.000000 -0.057518  0.121820
  0N   3s        -0.000009 -0.000001  0.000003 -0.000009 -0.053221  0.117724
  0N   4s         0.000023  0.000010 -0.000029  0.000017  0.857635 -2.220431
  0N   5s        -0.000070 -0.000061  0.000100  0.000079 -0.209527  2.595288
  0N   1pz        0.180029 -0.122468 -0.021396 -0.004382  0.111373  0.083608
  0N   1px       -0.094246 -0.207346  0.000720 -0.022836 -0.085706 -0.064338
  0N   1py       -0.130640 -0.019185  0.011351 -0.006811  0.215309  0.161639
  0N   2pz        0.015574 -0.010590 -0.232176 -0.047638  0.263387  0.258440
  0N   2px       -0.008153 -0.017933  0.007835 -0.247817 -0.202675 -0.198866
  0N   2py       -0.011309 -0.001661  0.123203 -0.073982  0.509199  0.499599
  0N   3pz        0.723841 -0.492391 -1.394453 -0.286183 -0.574552 -0.230760
  0N   3px       -0.378947 -0.833710  0.047097 -1.488238  0.442176  0.177592
  0N   3py       -0.525251 -0.077127  0.740076 -0.444425 -1.110698 -0.446169
  0N   1dz2       0.000297 -0.003597 -0.022241 -0.022344  0.000708  0.002000
  0N   1dxz       0.003338 -0.001191 -0.016414 -0.005132  0.000810  0.002288
  0N   1dyz       0.002060  0.001057 -0.018951  0.006030 -0.002034 -0.005748
  0N   1dx2y2     0.002121  0.002212 -0.014125  0.027648  0.001653  0.004676
  0N   1dxy      -0.001426  0.001277  0.008848 -0.008637  0.001566  0.004423
  0N   2dz2       0.015054 -0.057680  0.133261  0.118380  0.002586  0.000626
  0N   2dxz       0.038486 -0.020607  0.075045  0.036462  0.002962  0.000717
  0N   2dyz       0.036375  0.005807  0.112722 -0.022865 -0.007457 -0.001814
  0N   2dx2y2     0.040999  0.037774  0.084094 -0.157638  0.006074  0.001470
  0N   2dxy      -0.022778  0.004341 -0.041460  0.064569  0.005731  0.001398
  0N   1f0        0.000537  0.006508 -0.005307 -0.015507 -0.005383  0.014642
  0N   1f+1      -0.005717 -0.000515 -0.015649  0.005885 -0.007678  0.017894
  0N   1f-1      -0.001539  0.002675  0.001612 -0.003139 -0.001249  0.003067
  0N   1f+2       0.004179  0.000588  0.007724 -0.009737 -0.003072  0.009458
  0N   1f-2      -0.004526  0.000842 -0.014042  0.006172  0.003451 -0.005914
  0N   1f+3       0.001475 -0.006096  0.011462  0.016250 -0.005924  0.016263
  0N   1f-3       0.004054  0.001977  0.004703 -0.002026 -0.001412  0.002180
  1H   1s         0.012518  0.027537 -0.003509  0.110830 -0.018043  0.091362
  1H   2s        -0.075128 -0.165272 -0.047912  1.513931 -0.425058  0.892302
  1H   3s         0.903106  1.986858  0.001450 -0.046137  0.086320 -1.016290
  1H   1pz        0.004864 -0.005267 -0.023922 -0.005902  0.000803  0.008634
  1H   1px        0.029780  0.065512  0.003978 -0.125656  0.028540 -0.050840
  1H   1py       -0.005338 -0.003483  0.012773 -0.009543  0.001554  0.016685
  2H   1s        -0.030109 -0.002931  0.097733 -0.052378 -0.018034  0.091363
  2H   2s         0.180717  0.017582  1.335083 -0.715511 -0.424957  0.892287
  2H   3s        -2.172164 -0.211318 -0.040658  0.021822  0.086300 -1.016309
  2H   1pz       -0.032161 -0.007440 -0.070062  0.019796  0.015630 -0.013845
  2H   1px        0.021621 -0.003999  0.031128 -0.041816 -0.010335  0.008090
  2H   1py        0.060538  0.005691  0.081631 -0.044570 -0.021585  0.051767
  3H   1s         0.017588 -0.024608 -0.094223 -0.058454 -0.018037  0.091363
  3H   2s        -0.105590  0.147751 -1.287183 -0.798523 -0.424998  0.892327
  3H   3s         1.269130 -1.775523  0.039133  0.024287  0.086326 -1.016286
  3H   1pz       -0.037974  0.057114 -0.103872 -0.054499 -0.026649  0.050260
  3H   1px       -0.017232  0.013663 -0.028423 -0.043702 -0.010336  0.008092
  3H   1py       -0.007840  0.004749  0.010601 -0.008946  0.000283  0.018611
                     12        13        14        15        16        17   
                   0.58368   0.61019   0.61020   1.00807   1.00807   1.25489
                   0.00000   0.00000   0.00000   0.00000   0.00000   0.00000
                  --------  --------  --------  --------  --------  --------
  0N   1s        -0.027280 -0.000003 -0.000003  0.000000  0.000000 -0.003171
  0N   2s        -0.047801 -0.000006 -0.000004  0.000001  0.000001 -0.011815
  0N   3s        -0.152515 -0.000007 -0.000016 -0.000003 -0.000002  0.174429
  0N   4s         1.997580  0.000205  0.000203  0.000001 -0.000004 -0.148289
  0N   5s        -6.013567 -0.000751 -0.000597 -0.000008 -0.000008 -2.558643
  0N   1pz        0.001608  0.262137 -0.198203  0.035298 -0.017797  0.046481
  0N   1px       -0.001195 -0.157724 -0.305451 -0.012069 -0.039546 -0.035761
  0N   1py        0.003165 -0.198376 -0.019060 -0.023065 -0.006535  0.089852
  0N   2pz        0.038219  0.750102 -0.567147  0.037697 -0.019036  0.088524
  0N   2px       -0.029312 -0.451306 -0.874017 -0.012890 -0.042253 -0.068120
  0N   2py        0.074044 -0.567624 -0.054526 -0.024627 -0.006973  0.171039
  0N   3pz        0.468380 -1.407954  1.064664  0.142326 -0.071779  0.334984
  0N   3px       -0.360651  0.847138  1.640623 -0.048680 -0.159486 -0.257769
  0N   3py        0.905159  1.065671  0.102453 -0.093000 -0.026344  0.647533
  0N   1dz2       0.003570 -0.002966 -0.001459 -0.002476  0.000120  0.002981
  0N   1dxz       0.004086  0.005891 -0.000385  0.003008  0.000895  0.003413
  0N   1dyz      -0.010267  0.000120  0.003737 -0.001349  0.002312 -0.008571
  0N   1dx2y2     0.008353 -0.001090  0.000364 -0.001772 -0.001051  0.006973
  0N   1dxy       0.007900 -0.000394  0.005336 -0.000315  0.003601  0.006598
  0N   2dz2       0.009414  0.000725 -0.007502  0.337948  0.175417 -0.234996
  0N   2dxz       0.010763  0.006079 -0.002855 -0.651649 -0.096098 -0.268941
  0N   2dyz      -0.027040  0.004506  0.001444  0.102122 -0.427064  0.675553
  0N   2dx2y2     0.021975  0.004962  0.004454  0.172031  0.025584 -0.549578
  0N   2dxy       0.020805 -0.002856  0.002036  0.135189 -0.611653 -0.519839
  0N   1f0        0.005697 -0.000373 -0.003895  0.000415 -0.005797  0.021951
  0N   1f+1       0.008560  0.004580 -0.000868  0.006248  0.000353  0.017274
  0N   1f-1       0.001370 -0.002346  0.000749 -0.001792 -0.000451  0.003538
  0N   1f+2       0.003088 -0.002827 -0.002500 -0.003517 -0.003225  0.017715
  0N   1f-2      -0.004158  0.004743  0.000470  0.005864  0.001197  0.002239
  0N   1f+3       0.006245 -0.000909  0.005776 -0.002569  0.007161  0.024879
  0N   1f-3       0.001736  0.000181  0.001277 -0.001210  0.000484 -0.002040
  1H   1s         0.017736  0.044122  0.085451 -0.003614 -0.011851 -0.011805
  1H   2s         0.989505  0.324569  0.628418  0.051575  0.169034  1.091750
  1H   3s         0.974724 -0.981407 -1.900768  0.006120  0.020021  0.252823
  1H   1pz        0.011242  0.014648 -0.010095 -0.161109 -0.035356 -0.052563
  1H   1px       -0.025884 -0.007548 -0.014610 -0.003481 -0.011417 -0.075316
  1H   1py        0.021735 -0.010107  0.000315  0.025488 -0.171214 -0.101604
  2H   1s         0.017756 -0.096059 -0.004511  0.012074  0.002793 -0.011803
  2H   2s         0.989657 -0.706207 -0.033090 -0.172138 -0.039783  1.091614
  2H   3s         0.974121  2.137073  0.100492 -0.020400 -0.004725  0.252844
  2H   1pz        0.002479  0.012025 -0.010905  0.094487  0.117664 -0.111440
  2H   1px       -0.002906 -0.007025 -0.016569 -0.114489  0.109168  0.079029
  2H   1py        0.035407 -0.010023 -0.000997  0.093978  0.026173 -0.009749
  3H   1s         0.017743  0.051945 -0.080930 -0.008456  0.009064 -0.011810
  3H   2s         0.989554  0.382094 -0.595049  0.120570 -0.129229  1.091758
  3H   3s         0.974440 -1.155328  1.800572  0.014283 -0.015297  0.252831
  3H   1pz        0.027464  0.013246 -0.009166 -0.044378 -0.026352  0.056461
  3H   1px       -0.002903 -0.009440 -0.015325  0.155933  0.026607  0.079037
  3H   1py        0.022487 -0.010051 -0.002207 -0.046928  0.165603 -0.096581
                     18        19        20        21        22        23   
                   1.36027   1.36028   1.67920   1.80990   1.80991   1.91608
                   0.00000   0.00000   0.00000   0.00000   0.00000   0.00000
                  --------  --------  --------  --------  --------  --------
  0N   1s        -0.000000 -0.000000  0.000000  0.000004  0.000000 -0.048872
  0N   2s        -0.000001 -0.000001  0.000001  0.000013  0.000000 -0.161517
  0N   3s         0.000003  0.000002 -0.000010 -0.000126 -0.000003  1.569646
  0N   4s         0.000034  0.000039  0.000014  0.000321  0.000024 -3.842087
  0N   5s        -0.000006 -0.000053 -0.000013 -0.000061 -0.000003  0.936769
  0N   1pz        0.012578  0.004694  0.000002  0.229199  0.165922 -0.259115
  0N   1px        0.007077 -0.012127  0.000010 -0.130303  0.265723  0.199411
  0N   1py       -0.003678 -0.007253  0.000004 -0.170380  0.019945 -0.500956
  0N   2pz       -0.921763 -0.344310 -0.000009 -0.551600 -0.399323  0.513644
  0N   2px       -0.518796  0.888955 -0.000021  0.313583 -0.639497 -0.395287
  0N   2py        0.270286  0.531945 -0.000005  0.410039 -0.048000  0.992980
  0N   3pz       -0.858889 -0.320833  0.000003  0.429829  0.311183 -0.127894
  0N   3px       -0.483411  0.828345  0.000031 -0.244375  0.498372  0.098439
  0N   3py        0.251871  0.495698  0.000014 -0.319596  0.037408 -0.247311
  0N   1dz2      -0.007812  0.001802 -0.000000 -0.009637 -0.014594 -0.002785
  0N   1dxz      -0.004221 -0.001098 -0.000000 -0.000135 -0.006038 -0.003184
  0N   1dyz      -0.003277 -0.003855  0.000001 -0.010923 -0.005722  0.007996
  0N   1dx2y2     0.000688 -0.007868 -0.000001 -0.014779  0.010366 -0.006507
  0N   1dxy       0.000729  0.003063  0.000000  0.005856 -0.008674 -0.006152
  0N   2dz2       1.363752 -0.345120 -0.000016  0.252867  0.423566 -0.128592
  0N   2dxz       0.770163  0.235345 -0.000007  0.044037  0.172761 -0.147223
  0N   2dyz       0.545561  0.693393 -0.000005  0.309499  0.136520  0.369820
  0N   2dx2y2    -0.128542  1.370191  0.000008  0.410947 -0.295795 -0.300801
  0N   2dxy      -0.169994 -0.513115 -0.000004 -0.169179  0.209263 -0.284584
  0N   1f0       -0.044593  0.036982 -0.000226  0.002234 -0.026006  0.103611
  0N   1f+1      -0.029113 -0.045075  0.000112 -0.028364 -0.003224  0.116793
  0N   1f-1      -0.018196  0.005978  0.000189  0.009359  0.000074  0.020611
  0N   1f+2       0.012904  0.036871  0.000258  0.017989 -0.012565  0.070569
  0N   1f-2      -0.029703 -0.034132  0.000100 -0.027551  0.001521 -0.030424
  0N   1f+3       0.056258 -0.022845 -0.000086  0.006364  0.034290  0.115600
  0N   1f-3       0.007783  0.030985  0.000135  0.004138  0.003815  0.009967
  1H   1s        -0.106710  0.182852 -0.000009  0.046949 -0.095673 -0.451006
  1H   2s         1.304553 -2.235411 -0.000003 -0.324270  0.661070  1.659018
  1H   3s        -0.202913  0.347720 -0.000013  0.257702 -0.525495 -0.548668
  1H   1pz        0.063423 -0.005075  0.536353 -0.219506 -0.476791  0.145063
  1H   1px       -0.198394  0.339956 -0.000009  0.135258 -0.275773 -0.397365
  1H   1py        0.012083 -0.074288 -0.277447  0.471108 -0.482620  0.280487
  2H   1s        -0.105000 -0.183837  0.000003 -0.106306  0.007216 -0.451011
  2H   2s         1.283645  2.247449  0.000001  0.734473 -0.049810  1.658990
  2H   3s        -0.199670 -0.349583  0.000013 -0.583900  0.039587 -0.548680
  2H   1pz       -0.044782 -0.146751 -0.348254 -0.633879 -0.221898 -0.000305
  2H   1px        0.088249  0.057752 -0.493054  0.416111 -0.403224 -0.016374
  2H   1py        0.180155  0.312256 -0.016103 -0.194877  0.000969  0.507213
  3H   1s         0.211704  0.000991 -0.000006  0.059443  0.088490 -0.451002
  3H   2s        -2.588228 -0.012029  0.000013 -0.410611 -0.611317  1.658982
  3H   3s         0.402588  0.001883  0.000004  0.326319  0.485922 -0.548633
  3H   1pz       -0.380797  0.016539 -0.188086 -0.228936 -0.084856  0.414166
  3H   1px       -0.093696 -0.048437  0.493036  0.063979 -0.575898 -0.016402
  3H   1py       -0.086050 -0.028978  0.293528  0.528444  0.387451  0.292929
                     24        25        26        27        28        29   
                   2.07156   2.14508   2.14508   2.38490   2.45341   2.45343
                   0.00000   0.00000   0.00000   0.00000   0.00000   0.00000
                  --------  --------  --------  --------  --------  --------
  0N   1s        -0.082361 -0.000000  0.000011 -0.039977 -0.000000 -0.000008
  0N   2s        -0.269530 -0.000000  0.000036 -0.142108 -0.000001 -0.000027
  0N   3s         2.042737  0.000004 -0.000267  1.121246  0.000002  0.000178
  0N   4s        -3.693314 -0.000029  0.000430 -1.830586 -0.000000 -0.000220
  0N   5s         1.534710  0.000007 -0.000255  1.889145 -0.000001  0.000302
  0N   1pz        0.246973 -0.391428 -0.661480  0.311375 -0.228204 -0.029387
  0N   1px       -0.190155  0.612248 -0.521049 -0.239723 -0.070754  0.230051
  0N   1py        0.477572  0.446229  0.134663  0.602055  0.089743  0.106782
  0N   2pz       -0.117564  0.980291  1.656592 -0.520111  0.477487  0.061443
  0N   2px        0.090745 -1.533335  1.304987  0.400395  0.148143 -0.481194
  0N   2py       -0.227628 -1.117480 -0.337373 -1.005558 -0.187789 -0.223376
  0N   3pz        0.207518 -0.423708 -0.716005 -0.044655  0.039905  0.005100
  0N   3px       -0.159799  0.662753 -0.564047  0.034287  0.012461 -0.040137
  0N   3py        0.401297  0.483010  0.145806 -0.086273 -0.015726 -0.018680
  0N   1dz2      -0.002873 -0.001282 -0.007780  0.008729 -0.029258  0.014829
  0N   1dxz      -0.003288  0.000898 -0.002592  0.009993 -0.018389 -0.000944
  0N   1dyz       0.008250 -0.003532 -0.004245 -0.025113 -0.016291 -0.012641
  0N   1dx2y2    -0.006711 -0.007957  0.001651  0.020428 -0.004439 -0.031873
  0N   1dxy      -0.006352  0.003942 -0.002409  0.019327  0.006256  0.011053
  0N   2dz2       0.071373  0.251406 -0.112596 -0.122946  0.101370 -0.636962
  0N   2dxz       0.081670 -0.418291 -0.241152 -0.140706  0.886919  0.621863
  0N   2dyz      -0.205219 -0.166669  0.224707  0.353625 -0.249513  0.558240
  0N   2dx2y2     0.166956 -0.026010  0.080638 -0.287706 -0.122567  0.220418
  0N   2dxy       0.157986 -0.086350  0.382359 -0.272250 -0.699134  0.458643
  0N   1f0        0.050392 -0.041636  0.073553 -0.020271  0.041400 -0.052439
  0N   1f+1       0.078690  0.072391  0.030629 -0.071306  0.058278  0.043677
  0N   1f-1       0.012451 -0.004500  0.026692 -0.009403 -0.016946 -0.016192
  0N   1f+2       0.026210 -0.056592 -0.008510  0.004117 -0.011745 -0.054686
  0N   1f-2      -0.040234  0.057304  0.033836  0.062244  0.048588  0.050790
  0N   1f+3       0.055063  0.018540 -0.087230 -0.020106 -0.071762  0.052535
  0N   1f-3       0.017012 -0.045541 -0.003556 -0.028861 -0.014445 -0.000714
  1H   1s        -0.284048 -0.415217  0.353411  0.271763  0.128798 -0.418103
  1H   2s         0.862270  1.318821 -1.122484 -0.447168 -0.151511  0.491578
  1H   3s        -0.393651 -0.919630  0.782733 -0.183126  0.076859 -0.249716
  1H   1pz       -0.157754  0.263627 -0.006443  0.265255 -0.757689 -0.452549
  1H   1px       -0.195460 -0.395570  0.336668 -0.026931 -0.005223  0.017259
  1H   1py       -0.305003  0.246032 -0.322101  0.512966  0.542975 -0.256420
  2H   1s        -0.284093  0.513665  0.182934  0.271735  0.297726  0.320649
  2H   2s         0.862350 -1.631451 -0.581003 -0.447067 -0.350092 -0.377042
  2H   3s        -0.393715  1.137632  0.405140 -0.183206  0.177755  0.191405
  2H   1pz       -0.318909 -0.055887  0.094501  0.355381 -0.215869  0.585670
  2H   1px        0.227034 -0.016208  0.156133 -0.263330 -0.719643  0.383165
  2H   1py       -0.053423 -0.645380 -0.224522  0.372225  0.179269  0.230987
  3H   1s        -0.284160 -0.098412 -0.536278  0.271649 -0.426543  0.097552
  3H   2s         0.862602  0.312596  1.703330 -0.447040  0.501664 -0.114774
  3H   3s        -0.393865 -0.217981 -1.187724 -0.183283 -0.254645  0.058200
  3H   1pz        0.140757  0.155739  0.526137  0.098359 -0.139688 -0.276474
  3H   1px        0.227021 -0.156786 -0.008944 -0.263257  0.379402  0.721688
  3H   1py       -0.291104 -0.014989  0.421557  0.505124 -0.284169  0.546324
                     30        31        32        33        34        35   
                   2.50229   2.53967   2.53968   3.06392   3.28769   3.28769
                   0.00000   0.00000   0.00000   0.00000   0.00000   0.00000
                  --------  --------  --------  --------  --------  --------
  0N   1s         0.085515  0.000003  0.000000 -0.019237  0.000001  0.000001
  0N   2s         0.289455  0.000010  0.000000 -0.021635  0.000002  0.000004
  0N   3s        -1.930607 -0.000086 -0.000005 -1.408462  0.000019  0.000009
  0N   4s         2.324000  0.000116  0.000034  5.752107 -0.000145 -0.000129
  0N   5s        -3.472536 -0.000089 -0.000049 -0.179885  0.000034 -0.000039
  0N   1pz        0.271660  0.453777 -0.476589  0.070700 -0.368618 -0.357867
  0N   1px       -0.209036 -0.410583 -0.552461 -0.054434  0.303399 -0.443589
  0N   1py        0.525220 -0.398130  0.026585  0.136761  0.311453  0.008554
  0N   2pz       -0.290272  0.455414 -0.478261 -0.816548  2.165935  2.102867
  0N   2px        0.223309 -0.412138 -0.554502  0.628448 -1.782727  2.606464
  0N   2py       -0.561111 -0.399679  0.026740 -1.578729 -1.829969 -0.050230
  0N   3pz        0.366240  0.404588 -0.424886 -0.036980 -0.025943 -0.025168
  0N   3px       -0.281812 -0.366088 -0.492584  0.028460  0.021353 -0.031225
  0N   3py        0.708018 -0.354980  0.023716 -0.071464  0.021914  0.000609
  0N   1dz2      -0.007411  0.003640 -0.040830 -0.023499  0.002538  0.166536
  0N   1dxz      -0.008478  0.019732 -0.018854 -0.026894  0.114276  0.077636
  0N   1dyz       0.021289  0.025141 -0.003556  0.067572  0.102931 -0.011330
  0N   1dx2y2    -0.017322  0.033998  0.019340 -0.054965  0.124886 -0.084308
  0N   1dxy      -0.016384 -0.015122  0.003143 -0.051999 -0.058509 -0.041036
  0N   2dz2      -0.049217 -0.070647  0.604578  0.156594 -0.394891 -1.376549
  0N   2dxz      -0.056215 -0.264983  0.274674  0.179230 -0.342721 -0.569913
  0N   2dyz       0.141513 -0.371572  0.071940 -0.450321 -0.861521 -0.337625
  0N   2dx2y2    -0.115073 -0.512767 -0.285998  0.366296 -1.252670  0.703389
  0N   2dxy      -0.108885  0.228189 -0.019506  0.346489  0.560364 -0.265322
  0N   1f0        0.119770 -0.038712 -0.133656 -0.030449  0.037886 -0.160679
  0N   1f+1       0.137934  0.133683 -0.029952 -0.070609 -0.172801 -0.043918
  0N   1f-1       0.024147 -0.015110 -0.025925 -0.010072  0.053539  0.004144
  0N   1f+2       0.080490 -0.098275 -0.021423 -0.007315  0.123021 -0.058456
  0N   1f-2      -0.038571  0.118712 -0.028166  0.051084 -0.170038 -0.016965
  0N   1f+3       0.133475 -0.001678  0.160262 -0.032081  0.008850  0.216783
  0N   1f-3       0.013153 -0.054987  0.000952 -0.023076  0.027542  0.024168
  1H   1s        -0.469357 -0.232393 -0.312662 -0.178836  0.435237 -0.636355
  1H   2s         0.986069  1.193010  1.605169 -2.047394  1.255104 -1.834925
  1H   3s         0.436779 -0.055437 -0.074569  0.284015 -0.265906  0.388754
  1H   1pz        0.061793  0.039939 -0.007326  0.052381 -0.317280 -0.205645
  1H   1px       -0.333032 -0.764791 -1.029024  1.372796 -0.798842  1.167890
  1H   1py        0.119609  0.005664  0.039191  0.101294  0.151161  0.125332
  2H   1s        -0.469343  0.386969 -0.044895 -0.178827 -0.768684 -0.058750
  2H   2s         0.986092 -1.986623  0.230561 -2.047355 -2.216638 -0.169356
  2H   3s         0.436794  0.092341 -0.010703  0.284022  0.469609  0.035885
  2H   1pz       -0.083306  0.620174 -0.095777  0.771126  0.749307 -0.188889
  2H   1px        0.047532 -0.410005  0.013883 -0.511369 -0.453396 -0.383114
  2H   1py        0.346231 -1.034783  0.119005 -1.020489 -1.106753 -0.095947
  3H   1s        -0.469367 -0.154584  0.357514 -0.178820  0.333485  0.695099
  3H   2s         0.986012  0.793600 -1.835665 -2.047292  0.961649  2.004497
  3H   3s         0.436812 -0.036849  0.085276  0.283989 -0.203732 -0.424650
  3H   1pz        0.330625  0.492825 -1.107859 -1.278421  0.455820  1.256545
  3H   1px        0.047586  0.131574 -0.388544 -0.511346  0.521463  0.283653
  3H   1py        0.132043  0.017486 -0.090603  0.039726  0.205480 -0.049965
                     36        37        38        39        40        41   
                   4.15911   4.38144   4.38146   4.50957   4.70470   4.70471
                   0.00000   0.00000   0.00000   0.00000   0.00000   0.00000
                  --------  --------  --------  --------  --------  --------
  0N   1s        -0.001929  0.000000 -0.000000  0.000000  0.000000  0.000000
  0N   2s        -0.003546  0.000000 -0.000000  0.000001  0.000000  0.000001
  0N   3s        -0.068661  0.000002  0.000017 -0.000006  0.000026  0.000002
  0N   4s         0.305914 -0.000020 -0.000046  0.000004 -0.000133 -0.000027
  0N   5s         0.302418  0.000013  0.000008  0.000002  0.000131  0.000026
  0N   1pz        0.041186 -0.015175  0.106622 -0.000004 -0.018698 -0.031582
  0N   1px       -0.031686  0.107217  0.034597  0.000008  0.029234 -0.024881
  0N   1py        0.079622  0.050524 -0.041389  0.000001  0.021305  0.006431
  0N   2pz       -0.157225  0.081310 -0.571285  0.000029  0.144846  0.244709
  0N   2px        0.120946 -0.574476 -0.185370 -0.000039 -0.226499  0.192776
  0N   2py       -0.303936 -0.270717  0.221761 -0.000020 -0.165026 -0.049830
  0N   3pz       -0.054283  0.016967 -0.119222 -0.000003  0.001596  0.002707
  0N   3px        0.041768 -0.119876 -0.038682 -0.000008 -0.002502  0.002140
  0N   3py       -0.104934 -0.056498  0.046273 -0.000004 -0.001853 -0.000554
  0N   1dz2      -0.028054  0.123146 -0.234676 -0.000006  0.538615  0.099346
  0N   1dxz      -0.032104 -0.248175  0.185255 -0.000028 -0.845819 -0.361251
  0N   1dyz       0.080661 -0.105116 -0.258256  0.000008 -0.178479  0.607862
  0N   1dx2y2    -0.065608  0.213572 -0.089517  0.000007  0.274031  0.088722
  0N   1dxy      -0.062060 -0.289697 -0.230771 -0.000017 -0.328012  0.838037
  0N   2dz2      -0.020295  0.088150  0.276180 -0.000002 -0.413732 -0.202412
  0N   2dxz      -0.023237  0.039970  0.106514  0.000012  0.630978  0.219843
  0N   2dyz       0.058380 -0.079377  0.176918 -0.000017  0.070993 -0.513699
  0N   2dx2y2    -0.047504 -0.291289  0.049052 -0.000018 -0.332620 -0.036989
  0N   2dxy      -0.044932  0.144265 -0.001857  0.000022  0.304771 -0.650638
  0N   1f0       -0.241023  0.152859  0.081510  0.573081 -0.081310  0.116187
  0N   1f+1       0.378221 -0.090285 -0.204774 -0.282089  0.056961 -0.078218
  0N   1f-1       0.024039 -0.090753  0.872125 -0.475336  0.185803  0.369417
  0N   1f+2      -0.404631 -0.282321 -0.351664 -0.654385  0.014434 -0.202551
  0N   1f-2      -0.684267  0.389166 -0.031697 -0.252580 -0.125029  0.079778
  0N   1f+3      -0.302758  0.174183  0.192253  0.218505 -0.025570  0.044757
  0N   1f-3       0.337760  0.822969 -0.087776 -0.341119 -0.394033  0.103273
  1H   1s         0.011852  0.140738  0.045409  0.000012  0.070389 -0.059926
  1H   2s        -0.246899  0.443670  0.143169  0.000022  0.154125 -0.131189
  1H   3s        -0.017566 -0.039263 -0.012670  0.000000 -0.032287  0.027457
  1H   1pz        0.115069  0.120661  0.163071  0.289133 -0.209720 -0.020271
  1H   1px        0.095023 -0.194406 -0.062733 -0.000012 -0.106405  0.090544
  1H   1py        0.222443  0.322198  0.039744 -0.149560 -0.165146  0.243252
  2H   1s         0.011840 -0.109682  0.099177 -0.000016 -0.087099 -0.031004
  2H   2s        -0.246923 -0.345809  0.312656 -0.000032 -0.190669 -0.067889
  2H   3s        -0.017561  0.030599 -0.027667  0.000003  0.039891  0.014210
  2H   1pz        0.208432 -0.041707  0.141109 -0.187732  0.292023 -0.000274
  2H   1px       -0.149733  0.147847  0.012756 -0.265787 -0.138837 -0.197136
  2H   1py        0.076700 -0.279675  0.257637 -0.008703  0.079667  0.023576
  3H   1s         0.011831 -0.031051 -0.144574 -0.000001  0.016708  0.090928
  3H   2s        -0.246929 -0.097854 -0.455791  0.000009  0.036548  0.199084
  3H   3s        -0.017564  0.008657  0.040329 -0.000005 -0.007669 -0.041681
  3H   1pz       -0.057842 -0.090412 -0.223772 -0.101388 -0.035689  0.099299
  3H   1px       -0.149725  0.127404  0.076085  0.265813  0.172373  0.168665
  3H   1py        0.214433 -0.004419 -0.328600  0.158244  0.032318 -0.282883
                     42        43        44        45        46        47   
                   4.72556   4.94687   4.94688   5.39081   5.39083   5.76937
                   0.00000   0.00000   0.00000   0.00000   0.00000   0.00000
                  --------  --------  --------  --------  --------  --------
  0N   1s        -0.000381 -0.000001 -0.000000 -0.000001  0.000000 -0.010212
  0N   2s         0.001001 -0.000002 -0.000001 -0.000002  0.000001 -0.059926
  0N   3s        -0.186615  0.000029  0.000000  0.000030 -0.000011  1.804192
  0N   4s         0.811446 -0.000049  0.000023 -0.000033  0.000005 -5.291170
  0N   5s        -0.710847 -0.000001 -0.000017 -0.000030  0.000005  0.801459
  0N   1pz        0.009939  0.012939  0.015977  0.284771 -0.257081 -0.076851
  0N   1px       -0.007649 -0.014179  0.016170 -0.214395 -0.339249  0.059132
  0N   1py        0.019243 -0.012341 -0.001828 -0.232655 -0.002047 -0.148557
  0N   2pz       -0.120905 -0.412974 -0.509861 -1.955094  1.765046  0.635442
  0N   2px        0.093042  0.452218 -0.516293  1.471894  2.329139 -0.488900
  0N   2py       -0.233927  0.393642  0.058224  1.597236  0.014072  1.228201
  0N   3pz        0.056787  0.206920  0.255451  0.039612 -0.035777 -0.037300
  0N   3px       -0.043708 -0.226546  0.258706 -0.029828 -0.047205  0.028698
  0N   3py        0.109799 -0.197211 -0.029157 -0.032357 -0.000280 -0.072087
  0N   1dz2       0.258894  0.037139  1.021715  0.057255  0.026678 -0.014587
  0N   1dxz       0.295988  0.406625  0.495285 -0.111922  0.018669 -0.016707
  0N   1dyz      -0.744067  0.612429  0.170516 -0.011051 -0.069678  0.041925
  0N   1dx2y2     0.605278  0.896979 -0.409938  0.016459 -0.010865 -0.034132
  0N   1dxy       0.572503 -0.379415 -0.063084  0.000291 -0.100797 -0.032264
  0N   2dz2      -0.155715  0.015918 -0.437988  0.264244 -1.627996 -0.170142
  0N   2dxz      -0.177976 -0.226623 -0.226484  0.858984 -0.697627 -0.194683
  0N   2dyz       0.447406 -0.268318 -0.036699  1.019528 -0.059453  0.489011
  0N   2dx2y2    -0.364018 -0.368910  0.179003  1.302330  0.879459 -0.397801
  0N   2dxy      -0.344241  0.151276  0.078216 -0.615607  0.089831 -0.376291
  0N   1f0        0.010514 -0.031365  0.071200  0.165242  0.776214  0.691547
  0N   1f+1       0.106985  0.047768 -0.013914 -0.753435  0.092188  0.849255
  0N   1f-1       0.012676  0.063965  0.104040  0.019195  0.203803  0.145279
  0N   1f+2      -0.028067 -0.030924 -0.054764  0.540205  0.122168  0.445197
  0N   1f-2      -0.113612 -0.001411  0.038001 -0.646978  0.126473 -0.284082
  0N   1f+3       0.006771 -0.002431 -0.028721  0.078024 -0.871474  0.767912
  0N   1f-3       0.053778 -0.122508  0.044615  0.366641  0.057581  0.105271
  1H   1s        -0.007175 -0.017051  0.019422 -0.642690 -1.016995  0.750628
  1H   2s        -0.029261 -0.173958  0.198577 -1.024982 -1.621962  1.203052
  1H   3s         0.120188  0.152961 -0.174657  0.228527  0.361622 -0.263481
  1H   1pz        0.060521  0.074882  0.103943 -0.163052  0.099163  0.034591
  1H   1px        0.178762  0.337556 -0.385421  0.698834  1.105849 -0.962097
  1H   1py        0.117033 -0.085324 -0.000540  0.080037 -0.058087  0.066873
  2H   1s        -0.007224  0.025383  0.005044  1.202070 -0.048109  0.750591
  2H   2s        -0.029353  0.258995  0.051346  1.917165 -0.076733  1.202999
  2H   3s         0.120205 -0.227743 -0.045131 -0.427423  0.017111 -0.263463
  2H   1pz        0.175249 -0.231987  0.036639 -0.655324  0.150212 -0.441204
  2H   1px       -0.121759  0.116185  0.139983  0.439355  0.157956  0.285202
  2H   1py       -0.061861  0.435691  0.090166  1.042212 -0.035993  0.809462
  3H   1s        -0.007175 -0.008303 -0.024477 -0.559387  1.065096  0.750678
  3H   2s        -0.029266 -0.085008 -0.249928 -0.892120  1.698694  1.203115
  3H   3s         0.120182  0.074781  0.219798  0.198902 -0.378736 -0.263496
  3H   1pz       -0.151705 -0.116544 -0.478437 -0.632496  1.060439  0.915658
  3H   1px       -0.121669 -0.154079 -0.096673 -0.045898  0.464633  0.285229
  3H   1py        0.107234 -0.089517 -0.051045  0.063073  0.104531  0.107626
                     48   
                  31.56937
                   0.00000
                  --------
  0N   1s        -1.386601
  0N   2s         1.694810
  0N   3s        -1.540750
  0N   4s         1.661591
  0N   5s        -1.135833
  0N   1pz        0.009186
  0N   1px       -0.007069
  0N   1py        0.017761
  0N   2pz       -0.030790
  0N   2px        0.023699
  0N   2py       -0.059545
  0N   3pz        0.051647
  0N   3px       -0.039742
  0N   3py        0.099842
  0N   1dz2      -0.000549
  0N   1dxz      -0.000628
  0N   1dyz       0.001576
  0N   1dx2y2    -0.001282
  0N   1dxy      -0.001213
  0N   2dz2       0.004250
  0N   2dxz       0.004865
  0N   2dyz      -0.012230
  0N   2dx2y2     0.009944
  0N   2dxy       0.009410
  0N   1f0       -0.013901
  0N   1f+1      -0.018035
  0N   1f-1      -0.003027
  0N   1f+2      -0.008593
  0N   1f-2       0.006832
  0N   1f+3      -0.015386
  0N   1f-3      -0.002652
  1H   1s        -0.038610
  1H   2s        -0.027488
  1H   3s         0.198946
  1H   1pz       -0.002703
  1H   1px       -0.002263
  1H   1py       -0.005224
  2H   1s        -0.038612
  2H   2s        -0.027496
  2H   3s         0.198945
  2H   1pz       -0.004908
  2H   1px        0.003525
  2H   1py       -0.001783
  3H   1s        -0.038609
  3H   2s        -0.027483
  3H   3s         0.198947
  3H   1pz        0.001391
  3H   1px        0.003528
  3H   1py       -0.005035



                    ********************************
                    * MULLIKEN POPULATION ANALYSIS *
                    ********************************

-----------------------
MULLIKEN ATOMIC CHARGES
-----------------------
   0 N :   -0.698464
   1 H :    0.232822
   2 H :    0.232824
   3 H :    0.232817
Sum of atomic charges:    0.0000000

--------------------------------
MULLIKEN REDUCED ORBITAL CHARGES
--------------------------------
  0 N s       :     3.575098  s :     3.575098
      pz      :     1.273760  p :     4.095915
      px      :     1.225670
      py      :     1.596485
      dz2     :     0.008710  d :     0.025983
      dxz     :     0.000364
      dyz     :     0.004589
      dx2y2   :     0.009830
      dxy     :     0.002489
      f0      :     0.000317  f :     0.001469
      f+1     :     0.000304
      f-1     :     0.000018
      f+2     :     0.000226
      f-2     :     0.000120
      f+3     :     0.000504
      f-3     :    -0.000021
  1 H s       :     0.733747  s :     0.733747
      pz      :     0.006646  p :     0.033431
      px      :     0.017246
      py      :     0.009539
  2 H s       :     0.733746  s :     0.733746
      pz      :     0.009903  p :     0.033430
      px      :     0.007635
      py      :     0.015892
  3 H s       :     0.733750  s :     0.733750
      pz      :     0.016284  p :     0.033432
      px      :     0.007635
      py      :     0.009514


                     *******************************
                     * LOEWDIN POPULATION ANALYSIS *
                     *******************************

----------------------
LOEWDIN ATOMIC CHARGES
----------------------
   0 N :   -0.418340
   1 H :    0.139447
   2 H :    0.139450
   3 H :    0.139444

-------------------------------
LOEWDIN REDUCED ORBITAL CHARGES
-------------------------------
  0 N s       :     3.200818  s :     3.200818
      pz      :     1.303267  p :     4.149469
      px      :     1.261299
      py      :     1.584903
      dz2     :     0.022211  d :     0.063405
      dxz     :     0.005917
      dyz     :     0.009341
      dx2y2   :     0.022064
      dxy     :     0.003871
      f0      :     0.001014  f :     0.004648
      f+1     :     0.001162
      f-1     :     0.000044
      f+2     :     0.000498
      f-2     :     0.000516
      f+3     :     0.001319
      f-3     :     0.000094
  1 H s       :     0.756504  s :     0.756504
      pz      :     0.019309  p :     0.104049
      px      :     0.056341
      py      :     0.028399
  2 H s       :     0.756503  s :     0.756503
      pz      :     0.029208  p :     0.104047
      px      :     0.022204
      py      :     0.052634
  3 H s       :     0.756505  s :     0.756505
      pz      :     0.053369  p :     0.104051
      px      :     0.022205
      py      :     0.028476


                      *****************************
                      * MAYER POPULATION ANALYSIS *
                      *****************************

  NA   - Mulliken gross atomic population
  ZA   - Total nuclear charge
  QA   - Mulliken gross atomic charge
  VA   - Mayer's total valence
  BVA  - Mayer's bonded valence
  FA   - Mayer's free valence

  ATOM       NA         ZA         QA         VA         BVA        FA
  0 N      7.6985     7.0000    -0.6985     2.8270     2.8270     0.0000
  1 H      0.7672     1.0000     0.2328     0.9454     0.9454     0.0000
  2 H      0.7672     1.0000     0.2328     0.9454     0.9454     0.0000
  3 H      0.7672     1.0000     0.2328     0.9454     0.9454     0.0000

  Mayer bond orders larger than 0.100000
B(  0-N ,  1-H ) :   0.9423 B(  0-N ,  2-H ) :   0.9423 B(  0-N ,  3-H ) :   0.9423 


Now starting NBO....

 *********************************** NBO 7.0 ***********************************
             N A T U R A L   A T O M I C   O R B I T A L   A N D
          N A T U R A L   B O N D   O R B I T A L   A N A L Y S I S
 *********************** Giovanni  F. Caramori (I101916) ***********************
  (c) Copyright 1996-2020 Board of Regents of the University of Wisconsin System
      on behalf of the Theoretical Chemistry Institute.  All rights reserved.

          Cite this program [NBO 7.0.8 (11-Feb-2020)] as:

          NBO 7.0.  E. D. Glendening, J. K. Badenhoop, A. E. Reed,
          J. E. Carpenter, J. A. Bohmann, C. M. Morales, P. Karafiloglou,
          C. R. Landis, and F. Weinhold, Theoretical Chemistry Institute,
          University of Wisconsin, Madison, WI (2018)

       /NPA    / : Natural Population Analysis
       /NBO    / : Natural Bond Orbital Analysis
       /AONBO  / : Checkpoint the AO to NBO transformation
       /ARCHIVE/ : Write the archive file to lfn47

 Job title: ORCA Job: NH3


 NATURAL POPULATIONS:  Natural atomic orbital occupancies

  NAO Atom No lang   Type(AO)    Occupancy      Energy
 -------------------------------------------------------
   1    N  1  s      Cor( 1s)     1.99999     -16.50564
   2    N  1  s      Val( 2s)     1.51575      -1.08478
   3    N  1  s      Ryd( 3s)     0.00021       1.37606
   4    N  1  s      Ryd( 4s)     0.00000       3.63164
   5    N  1  s      Ryd( 5s)     0.00000      27.37754
   6    N  1  px     Val( 2p)     1.39500      -0.65261
   7    N  1  px     Ryd( 3p)     0.00198       0.49665
   8    N  1  px     Ryd( 4p)     0.00002       2.38524
   9    N  1  py     Val( 2p)     1.69349      -0.69302
  10    N  1  py     Ryd( 3p)     0.00422       0.38672
  11    N  1  py     Ryd( 4p)     0.00010       2.02972
  12    N  1  pz     Val( 2p)     1.43371      -0.65785
  13    N  1  pz     Ryd( 3p)     0.00227       0.48239
  14    N  1  pz     Ryd( 4p)     0.00003       2.33913
  15    N  1  dxy    Ryd( 3d)     0.00228       1.05585
  16    N  1  dxy    Ryd( 4d)     0.00001       4.18148
  17    N  1  dxz    Ryd( 3d)     0.00072       1.11574
  18    N  1  dxz    Ryd( 4d)     0.00001       4.22205
  19    N  1  dyz    Ryd( 3d)     0.00351       1.17484
  20    N  1  dyz    Ryd( 4d)     0.00001       4.22963
  21    N  1  dx2y2  Ryd( 3d)     0.00520       1.37947
  22    N  1  dx2y2  Ryd( 4d)     0.00001       4.30921
  23    N  1  dz2    Ryd( 3d)     0.00409       1.37262
  24    N  1  dz2    Ryd( 4d)     0.00001       4.31276
  25    N  1  f(0)   Ryd( 4f)     0.00014       4.29083
  26    N  1  f(c1)  Ryd( 4f)     0.00015       4.30313
  27    N  1  f(s1)  Ryd( 4f)     0.00002       3.97942
  28    N  1  f(c2)  Ryd( 4f)     0.00010       4.07388
  29    N  1  f(s2)  Ryd( 4f)     0.00008       3.96993
  30    N  1  f(c3)  Ryd( 4f)     0.00021       4.30532
  31    N  1  f(s3)  Ryd( 4f)     0.00002       3.98826

  32    H  2  s      Val( 1s)     0.64449      -0.16573
  33    H  2  s      Ryd( 2s)     0.00030       0.79832
  34    H  2  s      Ryd( 3s)     0.00005       1.56956
  35    H  2  px     Ryd( 2p)     0.00034       2.59887
  36    H  2  py     Ryd( 2p)     0.00026       1.85357
  37    H  2  pz     Ryd( 2p)     0.00012       1.88172

  38    H  3  s      Val( 1s)     0.64449      -0.16573
  39    H  3  s      Ryd( 2s)     0.00030       0.79815
  40    H  3  s      Ryd( 3s)     0.00005       1.56974
  41    H  3  px     Ryd( 2p)     0.00011       1.96140
  42    H  3  py     Ryd( 2p)     0.00045       2.31432
  43    H  3  pz     Ryd( 2p)     0.00015       2.05845

  44    H  4  s      Val( 1s)     0.64449      -0.16572
  45    H  4  s      Ryd( 2s)     0.00030       0.79826
  46    H  4  s      Ryd( 3s)     0.00005       1.56961
  47    H  4  px     Ryd( 2p)     0.00011       1.96141
  48    H  4  py     Ryd( 2p)     0.00027       1.85584
  49    H  4  pz     Ryd( 2p)     0.00034       2.51693


 Summary of Natural Population Analysis:

                                     Natural Population
             Natural    ---------------------------------------------
  Atom No    Charge        Core      Valence    Rydberg      Total
 --------------------------------------------------------------------
    N  1   -1.06332      1.99999     6.03795    0.02538     8.06332
    H  2    0.35444      0.00000     0.64449    0.00107     0.64556
    H  3    0.35444      0.00000     0.64449    0.00107     0.64556
    H  4    0.35444      0.00000     0.64449    0.00107     0.64556
 ====================================================================
 * Total *  0.00000      1.99999     7.97141    0.02860    10.00000

                                 Natural Population
 ---------------------------------------------------------
   Core                       1.99999 ( 99.9997% of    2)
   Valence                    7.97141 ( 99.6426% of    8)
   Natural Minimal Basis      9.97140 ( 99.7140% of   10)
   Natural Rydberg Basis      0.02860 (  0.2860% of   10)
 ---------------------------------------------------------

    Atom No         Natural Electron Configuration
 ----------------------------------------------------------------------------
      N  1      [core]2s( 1.52)2p( 4.52)3p( 0.01)3d( 0.02)
      H  2            1s( 0.64)
      H  3            1s( 0.64)
      H  4            1s( 0.64)


 NATURAL BOND ORBITAL ANALYSIS:

                            Occupancies       Lewis Structure    Low   High
         Max    Occ     -------------------  -----------------   occ   occ
  Cycle  Ctr   Thresh    Lewis   non-Lewis     CR  BD  nC  LP    (L)   (NL)
 ============================================================================
    1     2     1.90     9.99729   0.00271      1   3   0   1     0      0
 ----------------------------------------------------------------------------

 Structure accepted: No low occupancy Lewis orbitals

 -------------------------------------------------------
   Core                      1.99999 (100.000% of   2)
   Valence Lewis             7.99729 ( 99.966% of   8)
  ==================      =============================
   Total Lewis               9.99729 ( 99.973% of  10)
  -----------------------------------------------------
   Valence non-Lewis         0.00026 (  0.003% of  10)
   Rydberg non-Lewis         0.00245 (  0.025% of  10)
  ==================      =============================
   Total non-Lewis           0.00271 (  0.027% of  10)
 -------------------------------------------------------


     (Occupancy)   Bond orbital / Coefficients / Hybrids
 ------------------ Lewis ------------------------------------------------------
   1. (1.99999) CR ( 1) N  1            s(100.00%)
                                         1.0000  0.0000  0.0000  0.0000  0.0000
                                         0.0000  0.0000  0.0000  0.0000  0.0000
                                         0.0000  0.0000  0.0000  0.0000  0.0000
                                         0.0000  0.0000  0.0000  0.0000  0.0000
                                         0.0000  0.0000  0.0000  0.0000  0.0000
                                         0.0000  0.0000  0.0000  0.0000  0.0000
                                         0.0000
   2. (1.99830) LP ( 1) N  1            s( 23.35%)p 3.27( 76.45%)d 0.01(  0.19%)
                                                  f 0.00(  0.00%)
                                         0.0000  0.4831  0.0084  0.0000  0.0000
                                        -0.2909 -0.0172 -0.0005  0.7309  0.0433
                                         0.0013  0.3781  0.0224  0.0007  0.0211
                                        -0.0017  0.0109 -0.0009 -0.0274  0.0021
                                         0.0223 -0.0017  0.0095 -0.0007  0.0017
                                        -0.0025 -0.0002  0.0028  0.0046  0.0021
                                        -0.0023
   3. (1.99967) BD ( 1) N  1- H  2
               ( 67.76%)   0.8232* N  1 s( 25.49%)p 2.91( 74.20%)d 0.01(  0.30%)
                                                  f 0.00(  0.02%)
                                         0.0000  0.5048 -0.0039  0.0000  0.0000
                                         0.8609 -0.0259 -0.0008  0.0068 -0.0090
                                         0.0052  0.0035 -0.0046  0.0027 -0.0215
                                         0.0008 -0.0111  0.0004 -0.0053  0.0010
                                         0.0437  0.0015 -0.0209 -0.0017 -0.0027
                                        -0.0058 -0.0009 -0.0007 -0.0022 -0.0100
                                        -0.0020
               ( 32.24%)   0.5678* H  2 s( 99.96%)p 0.00(  0.04%)
                                         0.9998 -0.0002  0.0001 -0.0198 -0.0007
                                        -0.0004
   4. (1.99967) BD ( 1) N  1- H  3
               ( 67.76%)   0.8232* N  1 s( 25.49%)p 2.91( 74.20%)d 0.01(  0.30%)
                                                  f 0.00(  0.02%)
                                         0.0000  0.5048 -0.0039  0.0000  0.0000
                                        -0.2906  0.0134 -0.0025 -0.6787  0.0144
                                         0.0042  0.4428 -0.0196  0.0034  0.0200
                                         0.0008  0.0018 -0.0020 -0.0314 -0.0012
                                        -0.0346 -0.0009 -0.0195  0.0003 -0.0057
                                        -0.0013 -0.0037 -0.0063  0.0046 -0.0065
                                         0.0012
               ( 32.24%)   0.5678* H  3 s( 99.96%)p 0.00(  0.04%)
                                         0.9998 -0.0002  0.0001  0.0070  0.0152
                                        -0.0106
   5. (1.99967) BD ( 1) N  1- H  4
               ( 67.76%)   0.8232* N  1 s( 25.49%)p 2.91( 74.20%)d 0.01(  0.30%)
                                                  f 0.00(  0.02%)
                                         0.0000  0.5048 -0.0039  0.0000  0.0000
                                        -0.2906  0.0134 -0.0025 -0.0308 -0.0077
                                         0.0052 -0.8098  0.0231  0.0015  0.0130
                                        -0.0012  0.0153  0.0017  0.0218 -0.0003
                                         0.0030 -0.0002  0.0456  0.0015 -0.0076
                                        -0.0078  0.0017 -0.0050 -0.0012 -0.0014
                                         0.0009
               ( 32.24%)   0.5678* H  4 s( 99.96%)p 0.00(  0.04%)
                                         0.9998 -0.0002  0.0001  0.0070  0.0001
                                         0.0186
 ---------------- non-Lewis ----------------------------------------------------
   6. (0.00009) BD*( 1) N  1- H  2
               ( 32.24%)   0.5678* N  1 s( 25.49%)p 2.91( 74.20%)d 0.01(  0.30%)
                                                  f 0.00(  0.02%)
               ( 67.76%)  -0.8232* H  2 s( 99.96%)p 0.00(  0.04%)
   7. (0.00009) BD*( 1) N  1- H  3
               ( 32.24%)   0.5678* N  1 s( 25.49%)p 2.91( 74.20%)d 0.01(  0.30%)
                                                  f 0.00(  0.02%)
               ( 67.76%)  -0.8232* H  3 s( 99.96%)p 0.00(  0.04%)
   8. (0.00009) BD*( 1) N  1- H  4
               ( 32.24%)   0.5678* N  1 s( 25.49%)p 2.91( 74.20%)d 0.01(  0.30%)
                                                  f 0.00(  0.02%)
               ( 67.76%)  -0.8232* H  4 s( 99.96%)p 0.00(  0.04%)
   9. (0.00000) RY ( 1) N  1            s( 35.12%)p 1.77( 62.23%)d 0.04(  1.48%)
                                                  f 0.03(  1.16%)
  10. (0.00000) RY ( 2) N  1            s( 92.95%)p 0.08(  7.05%)d 0.00(  0.00%)
                                                  f 0.00(  0.00%)
  11. (0.00000) RY ( 3) N  1            s( 73.06%)p 0.37( 26.94%)d 0.00(  0.00%)
                                                  f 0.00(  0.00%)
  12. (0.00000) RY ( 4) N  1            s(  1.39%)p70.77( 98.61%)d 0.00(  0.00%)
                                                  f 0.00(  0.00%)
  13. (0.00000) RY ( 5) N  1            s( 26.77%)p 2.73( 73.23%)d 0.00(  0.00%)
                                                  f 0.00(  0.00%)
  14. (0.00000) RY ( 6) N  1            s( 64.76%)p 0.48( 31.04%)d 0.06(  4.20%)
                                                  f 0.00(  0.00%)
  15. (0.00000) RY ( 7) N  1            s(  1.94%)p50.59( 98.06%)d 0.00(  0.00%)
                                                  f 0.00(  0.00%)
  16. (0.00000) RY ( 8) N  1            s(  0.35%)p99.99( 99.65%)d 0.00(  0.00%)
                                                  f 0.00(  0.00%)
  17. (0.00000) RY ( 9) N  1            s(  1.12%)p88.61( 98.88%)d 0.00(  0.00%)
                                                  f 0.00(  0.00%)
  18. (0.00000) RY (10) N  1            s(  0.06%)p 2.97(  0.19%)d99.99( 99.75%)
                                                  f 0.00(  0.00%)
  19. (0.00000) RY (11) N  1            s(  0.26%)p 3.36(  0.87%)d99.99( 98.87%)
                                                  f 0.00(  0.00%)
  20. (0.00000) RY (12) N  1            s(  0.02%)p 3.48(  0.06%)d99.99( 99.93%)
                                                  f 0.00(  0.00%)
  21. (0.00000) RY (13) N  1            s(  0.02%)p 1.80(  0.04%)d99.99( 99.93%)
                                                  f 0.00(  0.00%)
  22. (0.00000) RY (14) N  1            s(  0.33%)p 2.71(  0.90%)d99.99( 98.77%)
                                                  f 0.00(  0.00%)
  23. (0.00000) RY (15) N  1            s(  0.50%)p 3.03(  1.50%)d99.99( 98.00%)
                                                  f 0.00(  0.00%)
[...]
   18. RY (10) N  1             0.00000     1.08509
   19. RY (11) N  1             0.00000     4.14745
   20. RY (12) N  1             0.00000     1.14958
   21. RY (13) N  1             0.00000     4.18777
   22. RY (14) N  1             0.00000     1.21358
   23. RY (15) N  1             0.00000     4.18972
   24. RY (16) N  1             0.00000     1.45069
   25. RY (17) N  1             0.00000     4.27251
   26. RY (18) N  1             0.00000     1.44473
   27. RY (19) N  1             0.00000     4.28003
   28. RY (20) N  1             0.00000     4.38617
   29. RY (21) N  1             0.00000     4.11276
   30. RY (22) N  1             0.00000     4.00982
   31. RY (23) N  1             0.00000     4.12106
   32. RY (24) N  1             0.00000     3.99048
   33. RY (25) N  1             0.00000     4.03898
   34. RY (26) N  1             0.00000     4.02214
   35. RY ( 1) H  2             0.00049     1.57437
   36. RY ( 2) H  2             0.00018     1.99603
   37. RY ( 3) H  2             0.00006     1.92463
   38. RY ( 4) H  2             0.00000     1.69293
   39. RY ( 5) H  2             0.00000     1.63269
   40. RY ( 1) H  3             0.00049     1.57421
   41. RY ( 2) H  3             0.00018     1.99621
   42. RY ( 3) H  3             0.00006     1.92464
   43. RY ( 4) H  3             0.00000     1.63274
   44. RY ( 5) H  3             0.00000     1.69285
   45. RY ( 1) H  4             0.00049     1.57427
   46. RY ( 2) H  4             0.00018     1.99616
   47. RY ( 3) H  4             0.00006     1.92464
   48. RY ( 4) H  4             0.00000     1.63272
   49. RY ( 5) H  4             0.00000     1.69285
          -------------------------------
                 Total Lewis    9.99781  ( 99.9781%)
           Valence non-Lewis    0.00000  (  0.0000%)
           Rydberg non-Lewis    0.00219  (  0.0219%)
          -------------------------------
               Total unit  1   10.00000  (100.0000%)
              Charge unit  1    0.00000

 $CHOOSE
   LONE 1 1 END
   BOND S 1 2 S 1 3 S 1 4 END
 $END

 NBO analysis completed in 0.07 CPU seconds (0 wall seconds)
 Maximum scratch memory used by NBO was 424789 words (3.24 MB)
Stopping NBO...Storing NBOs: NH3.nbo

                                *** returned from  NBO  program ***

-------
TIMINGS
-------

Total SCF time: 0 days 0 hours 0 min 5 sec 

Total time                  ....       5.342 sec
Sum of individual times     ....       4.559 sec  ( 85.3%)

Fock matrix formation       ....       2.906 sec  ( 54.4%)
  XC integration            ....       0.503 sec  ( 17.3% of F)
    Basis function eval.    ....       0.074 sec  ( 14.8% of XC)
    Density eval.           ....       0.025 sec  (  4.9% of XC)
    XC-Functional eval.     ....       0.036 sec  (  7.2% of XC)
    XC-Potential eval.      ....       0.031 sec  (  6.1% of XC)
Diagonalization             ....       0.002 sec  (  0.0%)
Density matrix formation    ....       0.035 sec  (  0.7%)
Population analysis         ....       0.500 sec  (  9.4%)
Initial guess               ....       0.055 sec  (  1.0%)
Orbital Transformation      ....       0.000 sec  (  0.0%)
Orbital Orthonormalization  ....       0.006 sec  (  0.1%)
DIIS solution               ....       0.000 sec  (  0.0%)
SOSCF solution              ....       0.027 sec  (  0.5%)
Grid generation             ....       1.034 sec  ( 19.3%)


-------------------------------------------------------------------------------
                          DFT DISPERSION CORRECTION                            
                                                                               
                              DFTD3 V3.1  Rev 1                                
                          USING Becke-Johnson damping                          
-------------------------------------------------------------------------------
The WB97X-D3BJ functional is recognized
Active option DFTDOPT                   ...         4   

molecular C6(AA) [au] = 84.665511 


            DFT-D V3
 parameters
 s6 scaling factor         :     1.0000 
 a1 scaling factor         :     0.0000 
 s8 scaling factor         :     0.2641 
 a2 scaling factor         :     5.4959 
 ad hoc parameters k1-k3   :    16.0000     1.3333    -4.0000 

 Edisp/kcal,au: -0.761741778058  -0.001213912663 
 E6   /kcal   :  -0.672714273 
 E8   /kcal   :  -0.089027505 
 % E8         :  11.687360206 

-------------------------   ----------------
Dispersion correction           -0.001213913
-------------------------   ----------------

------------------   -----------------
gCP correction             0.002531695
------------------   -----------------

-------------------------   --------------------
FINAL SINGLE POINT ENERGY       -56.600357887836
-------------------------   --------------------

                                *** OPTIMIZATION RUN DONE ***

                            ***************************************
                            *     ORCA property calculations      *
                            ***************************************

                                    ---------------------
                                    Active property flags
                                    ---------------------
   (+) Dipole Moment


------------------------------------------------------------------------------
                       ORCA ELECTRIC PROPERTIES CALCULATION
------------------------------------------------------------------------------

Dipole Moment Calculation                       ... on
Quadrupole Moment Calculation                   ... off
Polarizability Calculation                      ... off
GBWName                                         ... NH3.gbw
Electron density file                           ... NH3.scfp
The origin for moment calculation is the CENTER OF MASS  = (-4.574070, -5.354331 -0.035029)

-------------
DIPOLE MOMENT
-------------
                                X             Y             Z
Electronic contribution:     -0.06475       0.16265       0.08414
Nuclear contribution   :      0.28589      -0.71818      -0.37150
                        -----------------------------------------
Total Dipole Moment    :      0.22113      -0.55553      -0.28736
                        -----------------------------------------
Magnitude (a.u.)       :      0.66339
Magnitude (Debye)      :      1.68621



--------------------
Rotational spectrum 
--------------------
 
Rotational constants in cm-1:     9.983852     9.983661     6.258330 
Rotational constants in MHz : 299308.346019 299302.614821 187620.018884 

 Dipole components along the rotational axes: 
x,y,z [a.u.] :    -0.000001     0.000010    -0.663392 
x,y,z [Debye]:    -0.000003     0.000025    -1.686209 

 


           ************************************************************
           *        Program running with 12 parallel MPI-processes    *
           *              working on a common directory               *
           ************************************************************

-------------------------------------------------------------------------------
                               ORCA SCF HESSIAN
-------------------------------------------------------------------------------

Hessian of the Kohn-Sham DFT energy:
Kohn-Sham wavefunction type                      ... RKS
Hartree-Fock exchange scaling                    ...    0.167
Number of operators                              ...    1
Number of atoms                                  ...    4
Basis set dimensions                             ...   49
Integral neglect threshold                       ... 2.5e-11
Integral primitive cutoff                        ... 2.5e-12

Setting up DFT Hessian calculations              ... 
Electron density on the grid                     ... found on disk
Electron density on the final grid               ... found on disk
Building xc-kernel on the grid                   ... done   (      0.0 sec)
Building xc-kernel on the final grid             ... done   (      0.1 sec)
                                                     done   (      0.2 sec)

Nuclear repulsion Hessian                        ... done   (      0.0 sec)

----------------------------------------------
Forming right-hand sides of CP-SCF equations     ...
----------------------------------------------
One electron integral derivatives                ... done   (      0.3 sec)
Transforming the overlap derivative matrices     ... done   (      0.0 sec)
Making the Q(x) pseudodensities                  ... done   (      0.0 sec)
Adding the E*S(x)*S(y) terms to the Hessian      ... done   (      0.0 sec)
Calculating energy weighted overlap derivatives  ... done   (      0.0 sec)
Two electron integral derivatives                ... done   (      0.9 sec)
Exchange-correlation integral derivatives        ... done   (      0.8 sec)
tr(F(y)Q(x)) contribution to the Hessian         ... done   (      0.0 sec)
Response fock operator R(S(x))                   ... done   (      0.6 sec)
XC Response fock operator R(S(x))                ... done   (      0.5 sec)
tr(F(y)S(x)) contribution to the Hessian         ... done   (      0.0 sec)
Transforming and finalizing RHSs                 ... done   (      0.0 sec)

----------------------------------------------
Solving the CP-SCF equations                     ...
----------------------------------------------
     CP-SCF ITERATION   0: 
     CP-SCF ITERATION   1:      0.000472505382
     CP-SCF ITERATION   2:      0.000036842127
     CP-SCF ITERATION   3:      0.000000934614
     CP-SCF ITERATION   4:      0.000000051015
     CP-SCF ITERATION   5:      0.000000001608

                                                 ... done   (      7.2 sec)
Forming perturbed density Hessian contributions  ... done   (      0.0 sec)
Making the perturbed densities                   ... done   (      0.0 sec)
2nd integral derivative contribs                 ... done   (      1.9 sec)
Exchange-correlation Hessian                     ... done   (      0.9 sec)
Dispersion correction in the Hessian             ... done   (      0.2 sec)
gCP correction in the Hessian                    ... done   (      0.1 sec)
Dipol derivatives                                ... done   (      0.3 sec)

Total SCF Hessian time: 0 days 0 hours 0 min 14 sec 

Writing the Hessian file to the disk             ... done


Maximum memory used throughout the entire calculation: 253.0 MB

-----------------------
VIBRATIONAL FREQUENCIES
-----------------------

Scaling factor for frequencies =  1.000000000  (already applied!)

   0:         0.00 cm**-1
   1:         0.00 cm**-1
   2:         0.00 cm**-1
   3:         0.00 cm**-1
   4:         0.00 cm**-1
   5:         0.00 cm**-1
   6:      -223.94 cm**-1 ***imaginary mode***
   7:      1298.74 cm**-1
   8:      1298.78 cm**-1
   9:      3442.53 cm**-1
  10:      3562.40 cm**-1
  11:      3562.41 cm**-1


------------
NORMAL MODES
------------

These modes are the Cartesian displacements weighted by the diagonal matrix
M(i,i)=1/sqrt(m[i]) where m[i] is the mass of the displaced atom
Thus, these vectors are normalized but *not* orthogonal

                  0          1          2          3          4          5    
      0       0.000000   0.000000   0.000000   0.000000   0.000000   0.000000
      1       0.000000   0.000000   0.000000   0.000000   0.000000   0.000000
      2       0.000000   0.000000   0.000000   0.000000   0.000000   0.000000
      3       0.000000   0.000000   0.000000   0.000000   0.000000   0.000000
      4       0.000000   0.000000   0.000000   0.000000   0.000000   0.000000
      5       0.000000   0.000000   0.000000   0.000000   0.000000   0.000000
      6       0.000000   0.000000   0.000000   0.000000   0.000000   0.000000
      7       0.000000   0.000000   0.000000   0.000000   0.000000   0.000000
      8       0.000000   0.000000   0.000000   0.000000   0.000000   0.000000
      9       0.000000   0.000000   0.000000   0.000000   0.000000   0.000000
     10       0.000000   0.000000   0.000000   0.000000   0.000000   0.000000
     11       0.000000   0.000000   0.000000   0.000000   0.000000   0.000000
                  6          7          8          9         10         11    
      0       0.038442   0.063538   0.004444   0.012696  -0.075001  -0.005681
      1      -0.096577   0.017786   0.032358  -0.031902  -0.020782  -0.038335
      2      -0.049957   0.014508  -0.059135  -0.016504  -0.017534   0.069735
      3       0.018662   0.048446   0.003391  -0.576651   0.811074   0.061428
      4       0.509109   0.270701  -0.333049  -0.014855  -0.017242  -0.010995
      5       0.263344   0.079992   0.686054  -0.007682  -0.010708   0.017915
      6      -0.276427  -0.496344   0.405807   0.200112   0.097809   0.243182
      7       0.333427  -0.075428  -0.108139   0.447642   0.284498   0.593327
      8       0.375928  -0.484840   0.011355  -0.304027  -0.184498  -0.355940
      9      -0.276419  -0.435019  -0.470958   0.200117   0.133323  -0.225665
     10       0.499478  -0.442428  -0.008449   0.010515   0.021526  -0.049642
     11       0.054917   0.203249   0.124326   0.541040   0.438860  -0.631002


-----------
IR SPECTRUM
-----------

 Mode    freq (cm**-1)   T**2         TX         TY         TZ
-------------------------------------------------------------------
   7:      1298.74   25.329370  ( -4.731951  -1.328970  -1.082520)
   8:      1298.78   25.353723  ( -0.330946  -2.411945   4.407575)
   9:      3442.53    0.124764  ( -0.117708   0.295720   0.153164)
  10:      3562.40   20.251477  (  4.230348   1.173229   0.989529)
  11:      3562.41   20.245572  (  0.320437   2.162176  -3.932923)

The first frequency considered to be a vibration is 7
The total number of vibrations considered is 5


--------------------------
THERMOCHEMISTRY AT 298.15K
--------------------------

Temperature         ... 298.15 K
Pressure            ... 1.00 atm
Total Mass          ... 17.03 AMU

Throughout the following assumptions are being made:
  (1) The electronic state is orbitally nondegenerate
  (2) There are no thermally accessible electronically excited states
  (3) Hindered rotations indicated by low frequency modes are not
      treated as such but are treated as vibrations and this may
      cause some error
  (4) All equations used are the standard statistical mechanics
      equations for an ideal gas
  (5) All vibrations are strictly harmonic

freq.    1298.74  E(vib)   ...       0.01 
freq.    1298.78  E(vib)   ...       0.01 
freq.    3442.53  E(vib)   ...       0.00 
freq.    3562.40  E(vib)   ...       0.00 
freq.    3562.41  E(vib)   ...       0.00 

------------
INNER ENERGY
------------

The inner energy is: U= E(el) + E(ZPE) + E(vib) + E(rot) + E(trans)
    E(el)   - is the total energy from the electronic structure calculation
              = E(kin-el) + E(nuc-el) + E(el-el) + E(nuc-nuc)
    E(ZPE)  - the the zero temperature vibrational energy from the frequency calculation
    E(vib)  - the the finite temperature correction to E(ZPE) due to population
              of excited vibrational states
    E(rot)  - is the rotational thermal energy
    E(trans)- is the translational thermal energy

Summary of contributions to the inner energy U:
Electronic energy                ...    -56.60035789 Eh
Zero point energy                ...      0.02999177 Eh      18.82 kcal/mol
Thermal vibrational correction   ...      0.00002250 Eh       0.01 kcal/mol
Thermal rotational correction    ...      0.00141627 Eh       0.89 kcal/mol
Thermal translational correction ...      0.00141627 Eh       0.89 kcal/mol
-----------------------------------------------------------------------
Total thermal energy                    -56.56751108 Eh


Summary of corrections to the electronic energy:
(perhaps to be used in another calculation)
Total thermal correction                  0.00285504 Eh       1.79 kcal/mol
Non-thermal (ZPE) correction              0.02999177 Eh      18.82 kcal/mol
-----------------------------------------------------------------------
Total correction                          0.03284681 Eh      20.61 kcal/mol


--------
ENTHALPY
--------

The enthalpy is H = U + kB*T
                kB is Boltzmann's constant
Total free energy                 ...    -56.56751108 Eh 
Thermal Enthalpy correction       ...      0.00094421 Eh       0.59 kcal/mol
-----------------------------------------------------------------------
Total Enthalpy                    ...    -56.56656687 Eh


Note: Only C1 symmetry has been detected, increase convergence thresholds 
      if your molecule has a higher symmetry. Symmetry factor of 1.0 is   
      used for the rotational entropy correction. 
 

Note: Rotational entropy computed according to Herzberg 
Infrared and Raman Spectra, Chapter V,1, Van Nostrand Reinhold, 1945 
Point Group:  C1, Symmetry Number:   1  
Rotational constants in cm-1:     9.983852     9.983661     6.258330 

Vibrational entropy computed according to the QRRHO of S. Grimme
Chem.Eur.J. 2012 18 9955


-------
ENTROPY
-------

The entropy contributions are T*S = T*(S(el)+S(vib)+S(rot)+S(trans))
     S(el)   - electronic entropy
     S(vib)  - vibrational entropy
     S(rot)  - rotational entropy
     S(trans)- translational entropy
The entropies will be listed as mutliplied by the temperature to get
units of energy

Electronic entropy                ...      0.00000000 Eh      0.00 kcal/mol
Vibrational entropy               ...      0.00002610 Eh      0.02 kcal/mol
Rotational entropy                ...      0.00647252 Eh      4.06 kcal/mol
Translational entropy             ...      0.01636425 Eh     10.27 kcal/mol
-----------------------------------------------------------------------
Final entropy term                ...      0.02286286 Eh     14.35 kcal/mol

In case the symmetry of your molecule has not been determined correctly
or in case you have a reason to use a different symmetry number we print 
out the resulting rotational entropy values for sn=1,12 :
 --------------------------------------------------------
|  sn= 1 | S(rot)=       0.00647252 Eh      4.06 kcal/mol|
|  sn= 2 | S(rot)=       0.00581806 Eh      3.65 kcal/mol|
|  sn= 3 | S(rot)=       0.00543523 Eh      3.41 kcal/mol|
|  sn= 4 | S(rot)=       0.00516360 Eh      3.24 kcal/mol|
|  sn= 5 | S(rot)=       0.00495291 Eh      3.11 kcal/mol|
|  sn= 6 | S(rot)=       0.00478077 Eh      3.00 kcal/mol|
|  sn= 7 | S(rot)=       0.00463522 Eh      2.91 kcal/mol|
|  sn= 8 | S(rot)=       0.00450915 Eh      2.83 kcal/mol|
|  sn= 9 | S(rot)=       0.00439794 Eh      2.76 kcal/mol|
|  sn=10 | S(rot)=       0.00429846 Eh      2.70 kcal/mol|
|  sn=11 | S(rot)=       0.00420847 Eh      2.64 kcal/mol|
|  sn=12 | S(rot)=       0.00412631 Eh      2.59 kcal/mol|
 --------------------------------------------------------


-------------------
GIBBS FREE ENERGY
-------------------

The Gibbs free energy is G = H - T*S

Total enthalpy                    ...    -56.56656687 Eh 
Total entropy correction          ...     -0.02286286 Eh    -14.35 kcal/mol
-----------------------------------------------------------------------
Final Gibbs free energy         ...    -56.58942973 Eh

For completeness - the Gibbs free energy minus the electronic energy
G-E(el)                           ...      0.01092816 Eh      6.86 kcal/mol


Timings for individual modules:

Sum of individual times         ...       71.856 sec (=   1.198 min)
GTO integral calculation        ...        8.983 sec (=   0.150 min)  12.5 %
SCF iterations                  ...       38.394 sec (=   0.640 min)  53.4 %
SCF Gradient evaluation         ...        8.528 sec (=   0.142 min)  11.9 %
Geometry relaxation             ...        0.127 sec (=   0.002 min)   0.2 %
Analytical frequency calculation...       15.825 sec (=   0.264 min)  22.0 %
                             ****ORCA TERMINATED NORMALLY****
TOTAL RUN TIME: 0 days 0 hours 1 minutes 13 seconds 261 msec
