
                                 *****************
                                 * O   R   C   A *
                                 *****************

           --- An Ab Initio, DFT and Semiempirical electronic structure package ---

                  #######################################################
                  #                        -***-                        #
                  #          Department of theory and spectroscopy      #
                  #               Directorship: Frank Neese             #
                  #        Max Planck Institute fuer Kohlenforschung    #
                  #                Kaiser Wilhelm Platz 1               #
                  #                 D-45470 Muelheim/Ruhr               #
                  #                      Germany                        #
                  #                                                     #
                  #                  All rights reserved                #
                  #                        -***-                        #
                  #######################################################


                         Program Version 4.2.1 -  RELEASE  -


 With contributions from (in alphabetic order):
   Daniel Aravena         : Magnetic Suceptibility
   Michael Atanasov       : Ab Initio Ligand Field Theory (pilot matlab implementation)
   Alexander A. Auer      : GIAO ZORA, VPT2
   Ute Becker             : Parallelization
   Giovanni Bistoni       : ED, misc. LED, open-shell LED, HFLD
   Martin Brehm           : Molecular dynamics
   Dmytro Bykov           : SCF Hessian
   Vijay G. Chilkuri      : MRCI spin determinant printing, contributions to CSF-ICE
   Dipayan Datta          : RHF DLPNO-CCSD density
   Achintya Kumar Dutta   : EOM-CC, STEOM-CC
   Dmitry Ganyushin       : Spin-Orbit,Spin-Spin,Magnetic field MRCI
   Miquel Garcia          : C-PCM Hessian, Gaussian charge scheme
   Yang Guo               : DLPNO-NEVPT2, CIM, IAO-localization
   Andreas Hansen         : Spin unrestricted coupled pair/coupled cluster methods
   Benjamin Helmich-Paris : CASSCF linear response (MC-RPA)
   Lee Huntington         : MR-EOM, pCC
   Robert Izsak           : Overlap fitted RIJCOSX, COSX-SCS-MP3, EOM
   Christian Kollmar      : KDIIS, OOCD, Brueckner-CCSD(T), CCSD density
   Simone Kossmann        : Meta GGA functionals, TD-DFT gradient, OOMP2, MP2 Hessian
   Martin Krupicka        : AUTO-CI
   Lucas Lang             : DCDCAS
   Dagmar Lenk            : GEPOL surface, SMD
   Dimitrios Liakos       : Extrapolation schemes; Compound Job, initial MDCI parallelization
   Dimitrios Manganas     : Further ROCIS development; embedding schemes
   Dimitrios Pantazis     : SARC Basis sets
   Taras Petrenko         : DFT Hessian,TD-DFT gradient, ASA, ECA, R-Raman, ABS, FL, XAS/XES, NRVS
   Peter Pinski           : DLPNO-MP2, DLPNO-MP2 Gradient
   Christoph Reimann      : Effective Core Potentials
   Marius Retegan         : Local ZFS, SOC
   Christoph Riplinger    : Optimizer, TS searches, QM/MM, DLPNO-CCSD(T), (RO)-DLPNO pert. Triples
   Tobias Risthaus        : Range-separated hybrids, TD-DFT gradient, RPA, STAB
   Michael Roemelt        : Original ROCIS implementation
   Masaaki Saitow         : Open-shell DLPNO-CCSD energy and density
   Barbara Sandhoefer     : DKH picture change effects
   Avijit Sen             : IP-ROCIS
   Kantharuban Sivalingam : CASSCF convergence, NEVPT2, FIC-MRCI
   Bernardo de Souza      : ESD, SOC TD-DFT
   Georgi Stoychev        : AutoAux, RI-MP2 NMR
   Willem Van den Heuvel  : Paramagnetic NMR
   Boris Wezisla          : Elementary symmetry handling
   Frank Wennmohs         : Technical directorship


 We gratefully acknowledge several colleagues who have allowed us to
 interface, adapt or use parts of their codes:
   Stefan Grimme, W. Hujo, H. Kruse,             : VdW corrections, initial TS optimization,
                  C. Bannwarth                     DFT functionals, gCP, sTDA/sTD-DF
   Ed Valeev, F. Pavosevic, A. Kumar             : LibInt (2-el integral package), F12 methods
   Garnet Chan, S. Sharma, J. Yang, R. Olivares  : DMRG
   Ulf Ekstrom                                   : XCFun DFT Library
   Mihaly Kallay                                 : mrcc  (arbitrary order and MRCC methods)
   Andreas Klamt, Michael Diedenhofen            : otool_cosmo (COSMO solvation model)
   Jiri Pittner, Ondrej Demel                    : Mk-CCSD
   Frank Weinhold                                : gennbo (NPA and NBO analysis)
   Christopher J. Cramer and Donald G. Truhlar   : smd solvation model
   Lars Goerigk                                  : TD-DFT with DH, B97 family of functionals
   V. Asgeirsson, H. Jonsson                     : NEB implementation
   FAccTs GmbH                                   : IRC, NEB, NEB-TS, Multilevel, MM, QM/MM, CI optimization
   S Lehtola, MJT Oliveira, MAL Marques          : LibXC Library


 Your calculation uses the libint2 library for the computation of 2-el integrals
 For citations please refer to: http://libint.valeyev.net

 Your ORCA version has been built with support for libXC version: 4.2.3
 For citations please refer to: https://tddft.org/programs/libxc/

 This ORCA versions uses:
   CBLAS   interface :  Fast vector & matrix operations
   LAPACKE interface :  Fast linear algebra routines
   SCALAPACK package :  Parallel linear algebra routines




***************************************
The coordinates will be read from file: init.xyz
***************************************


Your calculation utilizes the geometrical counterpoise correction gCP
Please cite in your paper:
H.Kruse, S. Grimme J.Chem.Phys., 136, (2012), 154101 
   

Your calculation utilizes the atom-pairwise dispersion correction
with the Becke-Johnson damping scheme (D3BJ)
Cite in your paper:
S.Grimme, S.Ehrlich, L.Goerigk, J Comput Chem, (2011), 32, 1456–1465 
S.Grimme, J.Antony, S.Ehrlich and H.Krieg, J.Chem.Phys., 132, (2010), 154104 
   

----- Orbital basis set information -----
Your calculation utilizes the basis: def2-TZVP
   F. Weigend and R. Ahlrichs, Phys. Chem. Chem. Phys. 7, 3297 (2005).

================================================================================
                                        WARNINGS
                       Please study these warnings very carefully!
================================================================================


WARNING: The environment variable RSH_COMMAND is not set!
  ===> : All Displacements for the Numerical Hessian calculation
         will be started on localhost

WARNING: Geometry Optimization
  ===> : Switching off AutoStart
         For restart on a previous wavefunction, please use MOREAD

INFO   : the flag for use of LIBINT has been found!

================================================================================
                                       INPUT FILE
================================================================================
NAME = NH3‡.inp
|  1> ! wB97X-D3BJ gCP(DFT/TZ) def2-TZVP OptTS Freq IRC TightOpt TightSCF Grid4 FinalGrid5 PrintBasis PrintMOs NBO
|  2> 
|  3> %geom
|  4>  ts_mode
|  5>   {D 1 2 3 0}
|  6>  end
|  7>  ts_active_atoms
|  8>   {0 1 2 3}
|  9>  end
| 10>  calc_hess true
| 11>  numhess true
| 12> end
| 13> 
| 14> %irc
| 15>  maxiter 1000
| 16>  de_init_displ 0.25
| 17>  TolMAXG 1e-3
| 18>  TolRMSG 2e-4
| 19> end
| 20> 
| 21> %pal
| 22>  nprocs 12
| 23> end
| 24> 
| 25> *xyzfile 0 1 init.xyz
| 26> 
| 27>                          ****END OF INPUT****
================================================================================

                       *****************************
                       * Geometry Optimization Run *
                       *****************************

Geometry optimization settings:
Update method            Update   .... Bofill
Choice of coordinates    CoordSys .... Z-matrix Internals
Initial Hessian          InHess   .... Almoef's Model

Convergence Tolerances:
Energy Change            TolE     ....  1.0000e-06 Eh
Max. Gradient            TolMAXG  ....  1.0000e-04 Eh/bohr
RMS Gradient             TolRMSG  ....  3.0000e-05 Eh/bohr
Max. Displacement        TolMAXD  ....  1.0000e-03 bohr
RMS Displacement         TolRMSD  ....  6.0000e-04 bohr
Strict Convergence                ....  False
------------------------------------------------------------------------------
                        ORCA OPTIMIZATION COORDINATE SETUP
------------------------------------------------------------------------------

The optimization will be done in new redundant internal coordinates
Making redundant internal coordinates   ...  (new redundants) done
Following TS mode number                ...    internal coordinate number:  7
TS-active-atoms for coordinate setup... 0 1 2 3 
Evaluating the initial hessian          ...  (Is done on the fly) done
Evaluating the coordinates              ...  done
Calculating the B-matrix                .... done
Calculating the G-matrix                .... done
Diagonalizing the G-matrix              .... done
The first mode is                       ....    2
The number of degrees of freedom        ....    6

    -----------------------------------------------------------------
                    Redundant Internal Coordinates


    -----------------------------------------------------------------
         Definition                    Initial Value    d2E/dq (diagonal element)
    -----------------------------------------------------------------
      1. B(H   1,N   0)                  1.0052         0.000000   
      2. B(H   2,N   0)                  1.0052         0.000000   
      3. B(H   3,N   0)                  1.0052         0.000000   
      4. A(H   1,N   0,H   3)          120.0003         0.000000   
      5. A(H   2,N   0,H   3)          119.9994         0.000000   
      6. A(H   1,N   0,H   2)          120.0003         0.000000   
      7. D(N   0,H   3,H   2,H   1)     -0.0000         0.000000   
      8. I(H   1,H   3,H   2,N   0)     -0.0000         0.000000   
    -----------------------------------------------------------------

Number of atoms                         .... 4
Number of degrees of freedom            .... 8

         *************************************************************
         *                GEOMETRY OPTIMIZATION CYCLE   1            *
         *************************************************************
---------------------------------
CARTESIAN COORDINATES (ANGSTROEM)
---------------------------------
  N      0.000003   -0.000000   -0.000000
  H      1.005163    0.000000    0.000000
  H     -0.502583    0.870494    0.000000
  H     -0.502583   -0.870494    0.000000

----------------------------
CARTESIAN COORDINATES (A.U.)
----------------------------
  NO LB      ZA    FRAG     MASS         X           Y           Z
   0 N     7.0000    0    14.007    0.000005   -0.000000   -0.000000
   1 H     1.0000    0     1.008    1.899483    0.000000    0.000000
   2 H     1.0000    0     1.008   -0.949744    1.644996    0.000000
   3 H     1.0000    0     1.008   -0.949744   -1.644996    0.000000

--------------------------------
INTERNAL COORDINATES (ANGSTROEM)
--------------------------------
 N      0   0   0     0.000000000000     0.00000000     0.00000000
 H      1   0   0     1.005160191835     0.00000000     0.00000000
 H      1   2   0     1.005162915918   120.00028106     0.00000000
 H      1   2   3     1.005162915830   120.00028123   180.00000121

---------------------------
INTERNAL COORDINATES (A.U.)
---------------------------
 N      0   0   0     0.000000000000     0.00000000     0.00000000
 H      1   0   0     1.899477483288     0.00000000     0.00000000
 H      1   2   0     1.899482631058   120.00028106     0.00000000
 H      1   2   3     1.899482630892   120.00028123   180.00000121

---------------------
BASIS SET INFORMATION
---------------------
There are 2 groups of distinct atoms

 Group   1 Type N   : 11s6p2d1f contracted to 5s3p2d1f pattern {62111/411/11/1}
 Group   2 Type H   : 5s1p contracted to 3s1p pattern {311/1}

Atom   0N    basis set group =>   1
Atom   1H    basis set group =>   2
Atom   2H    basis set group =>   2
Atom   3H    basis set group =>   2

-------------------------
BASIS SET IN INPUT FORMAT
-------------------------

 # Basis set for element : H 
 NewGTO H 
 S 3 
   1      34.0613410000      0.0254393072
   2       5.1235746000      0.1900859489
   3       1.1646626000      0.8524411301
 S 1 
   1       0.3272304100      1.0000000000
 S 1 
   1       0.1030724100      1.0000000000
 P 1 
   1       0.8000000000      1.0000000000
  end;

 # Basis set for element : N 
 NewGTO N 
 S 6 
   1   19730.8006470000      0.0005862639
   2    2957.8958745000      0.0045428821
   3     673.2213359500      0.0235584136
   4     190.6824949400      0.0947091933
   5      62.2954418980      0.2971978492
   6      22.6541611820      0.6691624689
 S 2 
   1       8.9791477428      0.6459668363
   2       3.6863002370      0.3870057440
 S 1 
   1       0.8466007680      1.0000000000
 S 1 
   1       0.3364713377      1.0000000000
 S 1 
   1       0.1364765367      1.0000000000
 P 4 
   1      49.2003805100      0.0114488252
   2      11.3467905370      0.0784223379
   3       3.4273972411      0.3081809474
   4       1.1785525134      0.7202719637
 P 1 
   1       0.4164220497      1.0000000000
 P 1 
   1       0.1426082601      1.0000000000
 D 1 
   1       1.6540000000      1.0000000000
 D 1 
   1       0.4690000000      1.0000000000
 F 1 
   1       1.0930000000      1.0000000000
  end;



           ************************************************************
           *        Program running with 12 parallel MPI-processes    *
           *              working on a common directory               *
           ************************************************************
------------------------------------------------------------------------------
                           ORCA GTO INTEGRAL CALCULATION
------------------------------------------------------------------------------

                         BASIS SET STATISTICS AND STARTUP INFO

 # of primitive gaussian shells          ...   38
 # of primitive gaussian functions       ...   70
 # of contracted shells                  ...   23
 # of contracted basis functions         ...   49
 Highest angular momentum                ...    3
 Maximum contraction depth               ...    6
 Integral package used                   ... LIBINT
 Integral threshhold            Thresh   ...  2.500e-11
 Primitive cut-off              TCut     ...  2.500e-12


------------------------------ INTEGRAL EVALUATION ----------------------------


 * One electron integrals 
 Pre-screening matrix                    ... done
 Shell pair data                         ... done (   0.000 sec)



           ************************************************************
           *        Program running with 12 parallel MPI-processes    *
           *              working on a common directory               *
           ************************************************************
-------------------------------------------------------------------------------
                                 ORCA SCF
-------------------------------------------------------------------------------

------------
SCF SETTINGS
------------
Hamiltonian:
 Density Functional     Method          .... DFT(GTOs)
 Exchange Functional    Exchange        .... WB97X-V
 Correlation Functional Correlation     .... WB97X-V
 Gradients option       PostSCFGGA      .... off
 Hybrid DFT is turned on
   Fraction HF Exchange ScalHFX         ....  0.167000
   Scaling of DF-GGA-X  ScalDFX         ....  0.000000
   Scaling of DF-GGA-C  ScalDFC         ....  1.000000
   Scaling of DF-LDA-C  ScalLDAC        ....  1.000000
   Perturbative correction              ....  0.000000
   Density functional embedding theory  .... OFF
 Long-range corrected/Screened/Range-Separated Hybrid DFT is turned on
   Amount of maximum screened exact exchange              ....  0.833000
   Range separation parameter mu (erf(mu*r12)/r12)        ....  0.300000


General Settings:
 Integral files         IntName         .... NH3‡
 Hartree-Fock type      HFTyp           .... RHF
 Total Charge           Charge          ....    0
 Multiplicity           Mult            ....    1
 Number of Electrons    NEL             ....   10
 Basis Dimension        Dim             ....   49
 Nuclear Repulsion      ENuc            ....     11.9675068210 Eh

Convergence Acceleration:
 DIIS                   CNVDIIS         .... on
   Start iteration      DIISMaxIt       ....    12
   Startup error        DIISStart       ....  0.200000
   # of expansion vecs  DIISMaxEq       ....     5
   Bias factor          DIISBfac        ....   1.050
   Max. coefficient     DIISMaxC        ....  10.000
 Newton-Raphson         CNVNR           .... off
 SOSCF                  CNVSOSCF        .... on
   Start iteration      SOSCFMaxIt      ....   150
   Startup grad/error   SOSCFStart      ....  0.003300
 Level Shifting         CNVShift        .... on
   Level shift para.    LevelShift      ....    0.2500
   Turn off err/grad.   ShiftErr        ....    0.0010
 Zerner damping         CNVZerner       .... off
 Static damping         CNVDamp         .... on
   Fraction old density DampFac         ....    0.7000
   Max. Damping (<1)    DampMax         ....    0.9800
   Min. Damping (>=0)   DampMin         ....    0.0000
   Turn off err/grad.   DampErr         ....    0.1000
 Fernandez-Rico         CNVRico         .... off

SCF Procedure:
 Maximum # iterations   MaxIter         ....   125
 SCF integral mode      SCFMode         .... Direct
   Integral package                     .... LIBINT
 Reset frequency        DirectResetFreq ....    20
 Integral Threshold     Thresh          ....  2.500e-11 Eh
 Primitive CutOff       TCut            ....  2.500e-12 Eh

Convergence Tolerance:
 Convergence Check Mode ConvCheckMode   .... Total+1el-Energy
 Convergence forced     ConvForced      .... 0
 Energy Change          TolE            ....  1.000e-08 Eh
 1-El. energy change                    ....  1.000e-05 Eh
 Orbital Gradient       TolG            ....  1.000e-05
 Orbital Rotation angle TolX            ....  1.000e-05
 DIIS Error             TolErr          ....  5.000e-07


Diagonalization of the overlap matrix:
Smallest eigenvalue                        ... 4.896e-03
Time for diagonalization                   ...    0.003 sec
Threshold for overlap eigenvalues          ... 1.000e-08
Number of eigenvalues below threshold      ... 0
Time for construction of square roots      ...    0.001 sec
Total time needed                          ...    0.004 sec

-------------------
DFT GRID GENERATION
-------------------

General Integration Accuracy     IntAcc      ...  4.670
Radial Grid Type                 RadialGrid  ... Gauss-Chebyshev
Angular Grid (max. acc.)         AngularGrid ... Lebedev-302
Angular grid pruning method      GridPruning ... 3 (G Style)
Weight generation scheme         WeightScheme... Becke
Basis function cutoff            BFCut       ...    1.0000e-11
Integration weight cutoff        WCut        ...    1.0000e-14
Grids for H and He will be reduced by one unit

# of grid points (after initial pruning)     ...  16394 (   0.0 sec)
# of grid points (after weights+screening)   ...  16135 (   0.0 sec)
nearest neighbour list constructed           ...    0.0 sec
Grid point re-assignment to atoms done       ...    0.0 sec
Grid point division into batches done        ...    0.1 sec
Reduced shell lists constructed in    0.1 sec

Total number of grid points                  ...    16135
Total number of batches                      ...      254
Average number of points per batch           ...       63
Average number of grid points per atom       ...     4034
Average number of shells per batch           ...    21.48 (93.38%)
Average number of basis functions per batch  ...    46.35 (94.59%)
Average number of large shells per batch     ...    20.96 (97.57%)
Average number of large basis fcns per batch ...    45.83 (98.87%)
Maximum spatial batch extension              ...   2.60,  2.57, 15.66 au
Average spatial batch extension              ...   0.11,  0.12,  0.22 au

Time for grid setup =    0.236 sec

------------------------------
INITIAL GUESS: MODEL POTENTIAL
------------------------------
Loading Hartree-Fock densities                     ... done
Calculating cut-offs                               ... done
Setting up the integral package                    ... done
Initializing the effective Hamiltonian             ... done
Starting the Coulomb interaction                   ... done (   0.0 sec)
Reading the grid                                   ... done
Mapping shells                                     ... done
Starting the XC term evaluation                    ... done (   0.0 sec)
  promolecular density results
     # of electrons  =      9.998560841
     EX              =     -4.895481554
     EC              =     -0.382757569
     EX+EC           =     -5.278239123
Transforming the Hamiltonian                       ... done (   0.0 sec)
Diagonalizing the Hamiltonian                      ... done (   0.0 sec)
Back transforming the eigenvectors                 ... done (   0.0 sec)
Now organizing SCF variables                       ... done
                      ------------------
                      INITIAL GUESS DONE (   0.5 sec)
                      ------------------
--------------
SCF ITERATIONS
--------------
ITER       Energy         Delta-E        Max-DP      RMS-DP      [F,P]     Damp
               ***  Starting incremental Fock matrix formation  ***
  0    -56.5734572846   0.000000000000 0.02097028  0.00110409  0.2881157 0.7000
  1    -56.5819478093  -0.008490524765 0.01488798  0.00080044  0.2059288 0.7000
                               ***Turning on DIIS***
  2    -56.5861020987  -0.004154289386 0.00963827  0.00046037  0.1460245 0.7000
  3    -56.5885689835  -0.002466884822 0.00701433  0.00026586  0.1022908 0.7000
  4    -56.5902587886  -0.001689805096 0.01596874  0.00064713  0.0703372 0.0000
                      *** Initiating the SOSCF procedure ***
                           *** Shutting down DIIS ***
                      *** Re-Reading the Fockian *** 
                      *** Removing any level shift *** 
ITER      Energy       Delta-E        Grad      Rot      Max-DP    RMS-DP
  5    -56.59420685  -0.0039480603  0.001271  0.001271  0.001145  0.000080
               *** Restarting incremental Fock matrix formation ***
  6    -56.59422018  -0.0000133327  0.000558  0.000694  0.001213  0.000042
  7    -56.59422108  -0.0000009004  0.000229  0.000166  0.000230  0.000017
  8    -56.59422140  -0.0000003144  0.000050  0.000019  0.000046  0.000003
                 **** Energy Check signals convergence ****
              ***Rediagonalizing the Fockian in SOSCF/NRSCF***

               *****************************************************
               *                     SUCCESS                       *
               *           SCF CONVERGED AFTER   9 CYCLES          *
               *****************************************************

Setting up the final grid:

General Integration Accuracy     IntAcc      ...  5.010
Radial Grid Type                 RadialGrid  ... Gauss-Chebyshev
Angular Grid (max. acc.)         AngularGrid ... Lebedev-434
Angular grid pruning method      GridPruning ... 3 (G Style)
Weight generation scheme         WeightScheme... Becke
Basis function cutoff            BFCut       ...    1.0000e-11
Integration weight cutoff        WCut        ...    1.0000e-14
Grids for H and He will be reduced by one unit

# of grid points (after initial pruning)     ...  30666 (   0.0 sec)
# of grid points (after weights+screening)   ...  30107 (   0.0 sec)
nearest neighbour list constructed           ...    0.0 sec
Grid point re-assignment to atoms done       ...    0.0 sec
Grid point division into batches done        ...    0.5 sec
Reduced shell lists constructed in    0.5 sec

Total number of grid points                  ...    30107
Total number of batches                      ...      473
Average number of points per batch           ...       63
Average number of grid points per atom       ...     7527
Average number of shells per batch           ...    21.66 (94.17%)
Average number of basis functions per batch  ...    46.83 (95.57%)
Average number of large shells per batch     ...    21.17 (97.75%)
Average number of large basis fcns per batch ...    45.66 (97.50%)
Maximum spatial batch extension              ...   2.66,  2.74, 15.10 au
Average spatial batch extension              ...   0.09,  0.10,  0.15 au

Final grid set up in    0.6 sec
Final integration                            ... done (   0.1 sec)
Change in XC energy                          ...     0.000002586
Integrated number of electrons               ...    10.000001595
Previous integrated no of electrons          ...    10.000010030

----------------
TOTAL SCF ENERGY
----------------

Total Energy       :          -56.59421881 Eh           -1540.00699 eV

Components:
Nuclear Repulsion  :           11.96750682 Eh             325.65242 eV
Electronic Energy  :          -68.56172563 Eh           -1865.65940 eV
One Electron Energy:          -99.76668324 Eh           -2714.78947 eV
Two Electron Energy:           31.20495761 Eh             849.13007 eV

Virial components:
Potential Energy   :         -112.89141768 Eh           -3071.93165 eV
Kinetic Energy     :           56.29719886 Eh            1531.92466 eV
Virial Ratio       :            2.00527593


DFT components:
N(Alpha)           :        5.000000797604 electrons
N(Beta)            :        5.000000797604 electrons
N(Total)           :       10.000001595209 electrons
E(X)               :       -5.076959110842 Eh       
E(C)               :       -0.394127825654 Eh       
E(XC)              :       -5.471086936496 Eh       
DFET-embed. en.    :        0.000000000000 Eh       

---------------
SCF CONVERGENCE
---------------

  Last Energy change         ...   -3.3273e-09  Tolerance :   1.0000e-08
  Last MAX-Density change    ...    7.1641e-06  Tolerance :   1.0000e-07
  Last RMS-Density change    ...    5.7322e-07  Tolerance :   5.0000e-09
  Last Orbital Gradient      ...    3.7085e-06  Tolerance :   1.0000e-05
  Last Orbital Rotation      ...    3.7283e-06  Tolerance :   1.0000e-05

             **** THE GBW FILE WAS UPDATED (NH3‡.gbw) ****
             **** DENSITY FILE WAS UPDATED (NH3‡.scfp) ****
             **** ENERGY FILE WAS UPDATED (NH3‡.en.tmp) ****
             **** THE GBW FILE WAS UPDATED (NH3‡.gbw) ****
             **** DENSITY FILE WAS UPDATED (NH3‡.scfp) ****
----------------
ORBITAL ENERGIES
----------------

  NO   OCC          E(Eh)            E(eV) 
   0   2.0000     -14.372498      -391.0956 
   1   2.0000      -0.962373       -26.1875 
   2   2.0000      -0.588593       -16.0164 
   3   2.0000      -0.588590       -16.0164 
   4   2.0000      -0.345142        -9.3918 
   5   0.0000       0.110607         3.0098 
   6   0.0000       0.189595         5.1591 
   7   0.0000       0.189597         5.1592 
   8   0.0000       0.401140        10.9156 
   9   0.0000       0.401147        10.9158 
  10   0.0000       0.458898        12.4873 
  11   0.0000       0.485716        13.2170 
  12   0.0000       0.570249        15.5173 
  13   0.0000       0.631836        17.1931 
  14   0.0000       0.631842        17.1933 
  15   0.0000       1.047268        28.4976 
  16   0.0000       1.047287        28.4981 
  17   0.0000       1.309203        35.6252 
  18   0.0000       1.309223        35.6258 
  19   0.0000       1.357909        36.9506 
  20   0.0000       1.638874        44.5960 
  21   0.0000       1.867147        50.8077 
  22   0.0000       1.904714        51.8299 
  23   0.0000       1.904737        51.8305 
  24   0.0000       2.000170        54.4274 
  25   0.0000       2.107446        57.3465 
  26   0.0000       2.107459        57.3469 
  27   0.0000       2.296886        62.5015 
  28   0.0000       2.407642        65.5153 
  29   0.0000       2.498094        67.9766 
  30   0.0000       2.498096        67.9767 
  31   0.0000       2.711428        73.7817 
  32   0.0000       2.711440        73.7820 
  33   0.0000       3.041842        82.7727 
  34   0.0000       3.356767        91.3423 
  35   0.0000       3.356774        91.3425 
  36   0.0000       4.334298       117.9422 
  37   0.0000       4.334313       117.9427 
  38   0.0000       4.439132       120.7949 
  39   0.0000       4.692861       127.6992 
  40   0.0000       4.692895       127.7002 
  41   0.0000       4.729951       128.7085 
  42   0.0000       4.817440       131.0892 
  43   0.0000       4.922548       133.9494 
  44   0.0000       4.922565       133.9498 
  45   0.0000       5.359750       145.8462 
  46   0.0000       5.359763       145.8466 
  47   0.0000       6.034105       164.1963 
  48   0.0000      31.619567       860.4122 
------------------
MOLECULAR ORBITALS
------------------
                      0         1         2         3         4         5   
                 -14.37250  -0.96237  -0.58859  -0.58859  -0.34514   0.11061
                   2.00000   2.00000   2.00000   2.00000   2.00000   0.00000
                  --------  --------  --------  --------  --------  --------
  0N   1s         0.449800  0.096400 -0.000000 -0.000000 -0.000000  0.044176
  0N   2s         0.626098  0.217423 -0.000000 -0.000000 -0.000000  0.108104
  0N   3s         0.032433 -0.325657 -0.000002  0.000000  0.000000 -0.294813
  0N   4s        -0.019037 -0.390825  0.000011  0.000000  0.000000  0.284923
  0N   5s         0.012890 -0.130442 -0.000024 -0.000000  0.000000 -2.264800
  0N   1pz        0.000000 -0.000000 -0.000000 -0.000000 -0.428901 -0.000000
  0N   1px       -0.000000  0.000001  0.344435  0.000022 -0.000000 -0.000003
  0N   1py        0.000000 -0.000000  0.000022 -0.344436  0.000000  0.000000
  0N   2pz       -0.000000 -0.000000 -0.000000 -0.000000 -0.370198 -0.000000
  0N   2px        0.000000 -0.000004  0.262198  0.000016 -0.000000  0.000017
  0N   2py       -0.000000 -0.000000  0.000016 -0.262195 -0.000000 -0.000000
  0N   3pz        0.000000 -0.000000 -0.000000 -0.000000 -0.388304 -0.000000
  0N   3px       -0.000000  0.000004  0.127867  0.000008 -0.000000  0.000006
  0N   3py        0.000000 -0.000000  0.000008 -0.127873  0.000000  0.000000
  0N   1dz2      -0.000287  0.007502 -0.000000 -0.000000 -0.000000 -0.004148
  0N   1dxz      -0.000000  0.000000  0.000000  0.000000 -0.000000 -0.000000
  0N   1dyz       0.000000 -0.000000 -0.000000 -0.000000 -0.000000  0.000000
  0N   1dx2y2    -0.000000  0.000000  0.010657  0.000001 -0.000000 -0.000001
  0N   1dxy       0.000000 -0.000000 -0.000001  0.010657 -0.000000  0.000000
  0N   2dz2      -0.000150  0.012796  0.000002  0.000000 -0.000000 -0.029749
  0N   2dxz       0.000000 -0.000000  0.000000  0.000000  0.000001  0.000000
  0N   2dyz      -0.000000  0.000000  0.000000 -0.000000 -0.000000 -0.000000
  0N   2dx2y2     0.000000 -0.000003  0.002472  0.000000 -0.000000  0.000016
  0N   2dxy       0.000000 -0.000000 -0.000000  0.002475  0.000000  0.000000
  0N   1f0       -0.000000  0.000000  0.000000 -0.000000  0.008218 -0.000000
  0N   1f+1       0.000000  0.000000 -0.005433 -0.000000  0.000000 -0.000001
  0N   1f-1       0.000000  0.000000 -0.000000  0.005433  0.000000  0.000000
  0N   1f+2       0.000000  0.000000  0.000000 -0.000000  0.000000 -0.000000
  0N   1f-2       0.000000 -0.000000 -0.000000  0.000000 -0.000000  0.000000
  0N   1f+3      -0.000230  0.005129  0.000000  0.000000 -0.000000 -0.009130
  0N   1f-3       0.000000 -0.000000 -0.000000  0.000000  0.000000  0.000000
  1H   1s         0.000033 -0.088664  0.178171  0.000011 -0.000000  0.028896
  1H   2s         0.000022 -0.079668  0.228048  0.000014 -0.000000 -0.044187
  1H   3s        -0.002218 -0.011280  0.073162  0.000005 -0.000000  1.070674
  1H   1pz        0.000000  0.000000 -0.000000 -0.000000 -0.023835  0.000000
  1H   1px        0.000566  0.015214 -0.024054 -0.000002  0.000000  0.044462
  1H   1py       -0.000000  0.000000  0.000001 -0.011502 -0.000000 -0.000000
  2H   1s         0.000033 -0.088666 -0.089076 -0.154307 -0.000000  0.028896
  2H   2s         0.000022 -0.079671 -0.114005 -0.197495 -0.000000 -0.044119
  2H   3s        -0.002218 -0.011276 -0.036573 -0.063362 -0.000000  1.070589
  2H   1pz        0.000000  0.000000  0.000000  0.000000 -0.023834  0.000000
  2H   1px       -0.000283 -0.007609  0.002613 -0.015396 -0.000000 -0.022223
  2H   1py        0.000490  0.013177  0.015394  0.015166  0.000000  0.038494
  3H   1s         0.000033 -0.088666 -0.089096  0.154296 -0.000000  0.028896
  3H   2s         0.000022 -0.079671 -0.114030  0.197481 -0.000000 -0.044119
  3H   3s        -0.002218 -0.011276 -0.036581  0.063358 -0.000000  1.070590
  3H   1pz        0.000000  0.000000  0.000000 -0.000000 -0.023834  0.000000
  3H   1px       -0.000283 -0.007609  0.002611  0.015396 -0.000000 -0.022223
  3H   1py       -0.000490 -0.013177 -0.015396  0.015164 -0.000000 -0.038494
                      6         7         8         9        10        11   
                   0.18960   0.18960   0.40114   0.40115   0.45890   0.48572
                   0.00000   0.00000   0.00000   0.00000   0.00000   0.00000
                  --------  --------  --------  --------  --------  --------
  0N   1s        -0.000001 -0.000000 -0.000000  0.000004  0.000000 -0.033159
  0N   2s        -0.000003 -0.000000 -0.000000  0.000009  0.000000 -0.075799
  0N   3s         0.000008  0.000000  0.000000 -0.000018  0.000000 -0.020062
  0N   4s         0.000003  0.000000  0.000000 -0.000039 -0.000000  0.815998
  0N   5s         0.000051  0.000000  0.000000 -0.000125 -0.000000  1.436374
  0N   1pz       -0.000000  0.000000  0.000000  0.000000  0.305456  0.000000
  0N   1px       -0.223488 -0.000244  0.000000 -0.002081 -0.000000  0.000005
  0N   1py       -0.000244  0.223491 -0.002074 -0.000000 -0.000000 -0.000000
  0N   2pz       -0.000000  0.000000  0.000000  0.000000  0.792683  0.000000
  0N   2px        0.052415  0.000057  0.000066 -0.332975 -0.000000  0.000035
  0N   2py        0.000057 -0.052402 -0.332911 -0.000066 -0.000000 -0.000000
  0N   3pz        0.000000 -0.000000 -0.000000 -0.000000 -1.261401 -0.000000
  0N   3px       -1.059316 -0.001155  0.000400 -2.020565  0.000000 -0.000164
  0N   3py       -0.001155  1.059282 -2.020637 -0.000400  0.000000  0.000000
  0N   1dz2       0.000000  0.000000  0.000000 -0.000001 -0.000000  0.023890
  0N   1dxz       0.000000  0.000000  0.000000  0.000000 -0.000001  0.000000
  0N   1dyz      -0.000000 -0.000000  0.000000  0.000000  0.000000  0.000000
  0N   1dx2y2     0.004838  0.000005 -0.000007  0.036263 -0.000000  0.000001
  0N   1dxy      -0.000005  0.004838 -0.036266 -0.000007  0.000000  0.000000
  0N   2dz2      -0.000003 -0.000000 -0.000000  0.000002  0.000000 -0.087318
  0N   2dxz       0.000000  0.000000 -0.000000 -0.000000  0.000006 -0.000000
  0N   2dyz       0.000000 -0.000000 -0.000000  0.000000 -0.000000  0.000000
  0N   2dx2y2     0.088648  0.000097  0.000047 -0.234969 -0.000000  0.000024
  0N   2dxy      -0.000097  0.088646  0.234995  0.000047  0.000000 -0.000000
  0N   1f0        0.000000  0.000000  0.000000  0.000000 -0.003986 -0.000000
  0N   1f+1      -0.006815 -0.000007 -0.000006  0.030140  0.000000 -0.000001
  0N   1f-1      -0.000007  0.006815  0.030141  0.000006  0.000000  0.000000
  0N   1f+2       0.000000  0.000000 -0.000000 -0.000000 -0.000002 -0.000000
  0N   1f-2      -0.000000  0.000000  0.000000 -0.000000  0.000000  0.000000
  0N   1f+3      -0.000000 -0.000000 -0.000000  0.000001  0.000000 -0.038377
  0N   1f-3      -0.000000  0.000001  0.000000  0.000000 -0.000000 -0.000000
  1H   1s         0.009767  0.000011 -0.000020  0.099535  0.000000 -0.100964
  1H   2s        -0.237881 -0.000259 -0.000330  1.665699  0.000000 -1.286836
  1H   3s         2.300252  0.002509 -0.000079  0.397051 -0.000000  0.224777
  1H   1pz        0.000000 -0.000000  0.000000 -0.000000  0.006327  0.000000
  1H   1px        0.084905  0.000093  0.000030 -0.151520 -0.000000  0.073689
  1H   1py       -0.000001  0.000654 -0.068364 -0.000014  0.000000  0.000000
  2H   1s        -0.004875 -0.008465  0.086210 -0.049745  0.000000 -0.100975
  2H   2s         0.118702  0.206133  1.442590 -0.832427  0.000000 -1.286904
  2H   3s        -1.147983 -1.993328  0.343975 -0.198467 -0.000000  0.224677
  2H   1pz       -0.000000 -0.000000 -0.000000  0.000000  0.006328  0.000000
  2H   1px        0.020697  0.037069  0.036027 -0.089137  0.000000 -0.036839
  2H   1py       -0.036977 -0.063555 -0.130733  0.035982 -0.000000  0.063806
  3H   1s        -0.004894  0.008454 -0.086190 -0.049779  0.000000 -0.100975
  3H   2s         0.119152 -0.205873 -1.442260 -0.832999  0.000000 -1.286904
  3H   3s        -1.152329  1.990818 -0.343896 -0.198603 -0.000000  0.224677
  3H   1pz       -0.000000  0.000000  0.000000  0.000000  0.006328  0.000000
  3H   1px        0.020778 -0.037024 -0.035991 -0.089151  0.000000 -0.036839
  3H   1py        0.037116 -0.063474 -0.130718 -0.036034  0.000000 -0.063806
                     12        13        14        15        16        17   
                   0.57025   0.63184   0.63184   1.04727   1.04729   1.30920
                   0.00000   0.00000   0.00000   0.00000   0.00000   0.00000
                  --------  --------  --------  --------  --------  --------
  0N   1s         0.064151  0.000000 -0.000005  0.000000  0.000000 -0.000000
  0N   2s         0.127865  0.000000 -0.000010  0.000000  0.000000 -0.000000
  0N   3s         0.210641  0.000000 -0.000023 -0.000000 -0.000000  0.000000
  0N   4s        -3.155473 -0.000000  0.000284 -0.000000  0.000000  0.000000
  0N   5s         6.104479  0.000001 -0.000510  0.000000  0.000000 -0.000000
  0N   1pz       -0.000000 -0.000000  0.000000 -0.000004 -0.000000  0.000000
  0N   1px        0.000029 -0.000129  0.364768 -0.000000 -0.000000 -0.000001
  0N   1py        0.000000 -0.364764 -0.000129 -0.000000 -0.000000  0.015195
  0N   2pz       -0.000000 -0.000000  0.000000  0.000001 -0.000000 -0.000000
  0N   2px        0.000129 -0.000419  1.188420 -0.000000 -0.000000 -0.000110
  0N   2py        0.000000 -1.188375 -0.000419  0.000000 -0.000000  1.263223
  0N   3pz        0.000000  0.000000 -0.000000  0.000004 -0.000000 -0.000000
  0N   3px       -0.000156  0.000684 -1.940951 -0.000000 -0.000000 -0.000122
  0N   3py       -0.000000  1.940906  0.000684  0.000000 -0.000000  1.395484
  0N   1dz2       0.013239  0.000000 -0.000001 -0.000000  0.000000  0.000000
  0N   1dxz       0.000000 -0.000000  0.000000 -0.007790  0.000000 -0.000000
  0N   1dyz      -0.000000 -0.000000 -0.000000 -0.000000 -0.007783 -0.000000
  0N   1dx2y2    -0.000002  0.000002 -0.006329  0.000000 -0.000000  0.000000
  0N   1dxy       0.000000 -0.006327 -0.000002  0.000000 -0.000000  0.003162
  0N   2dz2       0.023028  0.000000 -0.000019  0.000000 -0.000000 -0.000000
  0N   2dxz      -0.000000  0.000000  0.000000  0.818368 -0.000004  0.000000
  0N   2dyz       0.000000 -0.000000  0.000000  0.000004  0.818342  0.000000
  0N   2dx2y2     0.000028 -0.000011  0.030719 -0.000000 -0.000000 -0.000140
  0N   2dxy      -0.000000  0.030663  0.000011 -0.000000  0.000000 -1.600383
  0N   1f0        0.000000  0.000000  0.000000  0.000001 -0.000000 -0.000000
  0N   1f+1      -0.000003  0.000006 -0.017358  0.000000 -0.000000  0.000006
  0N   1f-1      -0.000000  0.017352  0.000006 -0.000000  0.000000 -0.073801
  0N   1f+2      -0.000000  0.000000  0.000000 -0.008181  0.000000 -0.000000
  0N   1f-2      -0.000000  0.000000 -0.000000  0.000000  0.008183 -0.000000
  0N   1f+3       0.017163  0.000000 -0.000004  0.000000 -0.000000  0.000000
  0N   1f-3       0.000000 -0.000000 -0.000000 -0.000000  0.000000 -0.000002
  1H   1s         0.045820  0.000036 -0.102601 -0.000000 -0.000000 -0.000013
  1H   2s         0.047500  0.000320 -0.907892  0.000000 -0.000000  0.000239
  1H   3s        -1.411153 -0.000780  2.210381  0.000000 -0.000000 -0.000010
  1H   1pz       -0.000000 -0.000000  0.000000  0.213885 -0.000001 -0.000000
  1H   1px       -0.028191 -0.000020  0.056235 -0.000000  0.000000 -0.000036
  1H   1py        0.000000 -0.031602 -0.000011  0.000000  0.000000 -0.114925
  2H   1s         0.045830  0.088837  0.051327  0.000000 -0.000000  0.130555
  2H   2s         0.047675  0.786064  0.454212 -0.000000  0.000000 -2.370482
  2H   3s        -1.411439 -1.913747 -1.105695 -0.000000  0.000000  0.101660
  2H   1pz       -0.000000 -0.000000 -0.000000 -0.106943  0.185252  0.000000
  2H   1px        0.014114  0.010642  0.037764  0.000000  0.000000 -0.228345
  2H   1py       -0.024433 -0.050053 -0.010671  0.000000 -0.000000  0.280578
  3H   1s         0.045830 -0.088873  0.051264  0.000000  0.000000 -0.130542
  3H   2s         0.047675 -0.786384  0.453658 -0.000000 -0.000000  2.370243
  3H   3s        -1.411440  1.914526 -1.104345 -0.000000 -0.000000 -0.101650
  3H   1pz       -0.000000  0.000000 -0.000000 -0.106945 -0.185251 -0.000000
  3H   1px        0.014114 -0.010668  0.037756  0.000000 -0.000000  0.228342
  3H   1py        0.024433 -0.050061  0.010636 -0.000000 -0.000000  0.280538
                     18        19        20        21        22        23   
                   1.30922   1.35791   1.63887   1.86715   1.90471   1.90474
                   0.00000   0.00000   0.00000   0.00000   0.00000   0.00000
                  --------  --------  --------  --------  --------  --------
  0N   1s         0.000000 -0.006037 -0.000000 -0.000000  0.000002 -0.000000
  0N   2s         0.000001 -0.024072 -0.000000 -0.000000  0.000006 -0.000000
  0N   3s        -0.000004  0.490329  0.000000  0.000000 -0.000076  0.000000
  0N   4s        -0.000033 -1.548255 -0.000000 -0.000000  0.000262 -0.000000
  0N   5s         0.000105 -1.962204  0.000000  0.000000 -0.000131  0.000000
  0N   1pz       -0.000000 -0.000000  0.000000  0.559892 -0.000000 -0.000000
  0N   1px       -0.015165  0.000008 -0.000000 -0.000000 -0.641664  0.000025
  0N   1py       -0.000001  0.000000 -0.000003 -0.000000 -0.000025 -0.641670
  0N   2pz        0.000000 -0.000000 -0.000000 -0.301868 -0.000000  0.000000
  0N   2px       -1.263249 -0.000047  0.000000  0.000000  2.295457 -0.000091
  0N   2py       -0.000110 -0.000000  0.000011  0.000000  0.000091  2.295427
  0N   3pz        0.000000 -0.000000  0.000000  0.523316 -0.000000 -0.000000
  0N   3px       -1.395560 -0.000031  0.000000 -0.000000 -0.813674  0.000032
  0N   3py       -0.000122 -0.000000 -0.000010 -0.000000 -0.000032 -0.813679
  0N   1dz2       0.000004 -0.009278  0.000000  0.000000 -0.000003  0.000000
  0N   1dxz       0.000000 -0.000000  0.000000  0.000001 -0.000000 -0.000000
  0N   1dyz       0.000000 -0.000000  0.000000  0.000000 -0.000000 -0.000000
  0N   1dx2y2     0.003154 -0.000002  0.000000  0.000000  0.011087 -0.000000
  0N   1dxy      -0.000000 -0.000000 -0.000001 -0.000000 -0.000000 -0.011088
  0N   2dz2      -0.000035  1.472987 -0.000000  0.000000 -0.000000  0.000000
  0N   2dxz      -0.000000 -0.000000 -0.000000 -0.000013  0.000000  0.000000
  0N   2dyz       0.000000  0.000000  0.000000 -0.000000 -0.000000  0.000000
  0N   2dx2y2    -1.600352 -0.000044  0.000000  0.000000  0.926558 -0.000037
  0N   2dxy       0.000140 -0.000000  0.000015 -0.000000 -0.000037 -0.926548
  0N   1f0        0.000000  0.000000 -0.000000  0.007791 -0.000000 -0.000000
  0N   1f+1       0.073800  0.000005 -0.000000 -0.000000 -0.149137  0.000006
  0N   1f-1       0.000006  0.000000 -0.000001 -0.000000 -0.000006 -0.149134
  0N   1f+2      -0.000000  0.000000 -0.000000  0.000002  0.000000 -0.000000
  0N   1f-2      -0.000000 -0.000000  0.000000 -0.000000  0.000000 -0.000000
  0N   1f+3       0.000002  0.106255  0.000000  0.000000 -0.000018  0.000000
  0N   1f-3       0.000000  0.000000  0.035442  0.000000 -0.000000 -0.000002
  1H   1s        -0.150774 -0.088478  0.000000 -0.000000  0.505786 -0.000020
  1H   2s         2.737066  1.620777 -0.000000  0.000000 -2.406407  0.000095
  1H   3s        -0.117333  0.008485  0.000000 -0.000000  1.326507 -0.000053
  1H   1pz       -0.000000  0.000000  0.000000 -0.583493 -0.000000  0.000000
  1H   1px       -0.412401 -0.234246  0.000000 -0.000000  0.823083 -0.000033
  1H   1py        0.000010 -0.000000  0.610532  0.000000  0.000023  0.567713
  2H   1s         0.075358 -0.088458  0.000003 -0.000000 -0.252837  0.438022
  2H   2s        -1.368353  1.620650  0.000003  0.000000  1.202996 -2.083978
  2H   3s         0.058639  0.008484  0.000006 -0.000000 -0.663149  1.148795
  2H   1pz        0.000000  0.000000 -0.000000 -0.583509  0.000000 -0.000000
  2H   1px       -0.016868  0.117110 -0.528754  0.000000  0.631528 -0.110587
  2H   1py        0.228320 -0.202835 -0.305277 -0.000000 -0.110499  0.759199
  3H   1s         0.075381 -0.088458 -0.000003 -0.000000 -0.252872 -0.438002
  3H   2s        -1.368766  1.620650 -0.000003  0.000000  1.203161  2.083883
  3H   3s         0.058657  0.008484 -0.000006 -0.000000 -0.663240 -1.148742
  3H   1pz        0.000000  0.000000 -0.000000 -0.583509  0.000000  0.000000
  3H   1px       -0.016907  0.117110  0.528754  0.000000  0.631537  0.110536
  3H   1py       -0.228369  0.202835 -0.305277  0.000000  0.110559  0.759190
                     24        25        26        27        28        29   
                   2.00017   2.10745   2.10746   2.29689   2.40764   2.49809
                   0.00000   0.00000   0.00000   0.00000   0.00000   0.00000
                  --------  --------  --------  --------  --------  --------
  0N   1s        -0.079779 -0.000000  0.000000  0.000000  0.105007 -0.000000
  0N   2s        -0.255657 -0.000000  0.000000  0.000000  0.365254 -0.000000
  0N   3s         2.261919  0.000000 -0.000000 -0.000000 -2.706729  0.000000
  0N   4s        -5.505598 -0.000000 -0.000000  0.000000  3.888767 -0.000000
  0N   5s         2.317152  0.000000  0.000000 -0.000000 -3.532926  0.000000
  0N   1pz       -0.000000  0.000003 -0.000000  1.132346 -0.000000  0.000000
  0N   1px       -0.000035  0.000000  0.000000 -0.000000 -0.000126 -0.000104
  0N   1py        0.000000  0.000000 -0.000000  0.000000  0.000000  1.068082
  0N   2pz       -0.000000  0.000000  0.000000 -1.755655  0.000000 -0.000000
  0N   2px        0.000111 -0.000000 -0.000000 -0.000000  0.000203  0.000140
  0N   2py       -0.000000 -0.000000  0.000000  0.000000 -0.000000 -1.448201
  0N   3pz       -0.000000  0.000007 -0.000000  0.543484 -0.000000  0.000000
  0N   3px       -0.000017  0.000000 -0.000000  0.000000 -0.000077 -0.000079
  0N   3py        0.000000 -0.000000 -0.000000  0.000000  0.000000  0.815689
  0N   1dz2       0.041356  0.000000  0.000000  0.000000  0.065387 -0.000000
  0N   1dxz       0.000000 -0.027565  0.000001  0.000002 -0.000000 -0.000000
  0N   1dyz      -0.000000  0.000001  0.027554  0.000000  0.000000  0.000000
  0N   1dx2y2     0.000004 -0.000000 -0.000000  0.000000  0.000001  0.000001
  0N   1dxy       0.000000  0.000000 -0.000000  0.000000  0.000000  0.012001
  0N   2dz2       0.171623 -0.000000  0.000000 -0.000000 -0.129864  0.000000
  0N   2dxz      -0.000000  1.008034 -0.000051  0.000006 -0.000000 -0.000000
  0N   2dyz       0.000000 -0.000051 -1.008035 -0.000000  0.000000 -0.000000
  0N   2dx2y2     0.000031 -0.000000 -0.000000 -0.000000 -0.000031 -0.000067
  0N   2dxy       0.000000  0.000000 -0.000000  0.000000 -0.000000 -0.688666
  0N   1f0        0.000000  0.000003 -0.000000 -0.036299  0.000000 -0.000000
  0N   1f+1      -0.000009  0.000000  0.000000  0.000000  0.000006  0.000007
  0N   1f-1       0.000000  0.000000 -0.000000  0.000000 -0.000000 -0.071736
  0N   1f+2       0.000000 -0.046515  0.000002  0.000004  0.000000  0.000000
  0N   1f-2      -0.000000 -0.000002 -0.046518 -0.000000  0.000000 -0.000000
  0N   1f+3       0.278191  0.000000  0.000000  0.000000  0.203989 -0.000000
  0N   1f-3       0.000000 -0.000000 -0.000000  0.000000  0.000000 -0.000003
  1H   1s        -0.515944 -0.000000 -0.000000 -0.000000 -0.468287 -0.000002
  1H   2s         1.726807  0.000000  0.000000  0.000000  0.497455  0.000006
  1H   3s        -0.770548 -0.000000 -0.000000  0.000000  0.488082  0.000055
  1H   1pz        0.000000 -1.027183  0.000052  0.370434 -0.000000  0.000000
  1H   1px       -0.522647 -0.000000 -0.000000 -0.000000 -0.153315 -0.000029
  1H   1py       -0.000000  0.000000  0.000000 -0.000000  0.000000  0.717498
  2H   1s        -0.516012  0.000000  0.000000 -0.000000 -0.468287  0.020336
  2H   2s         1.727013 -0.000000 -0.000000  0.000000  0.497550 -0.051402
  2H   3s        -0.770640  0.000000  0.000000  0.000000  0.487954 -0.487774
  2H   1pz        0.000000  0.513627  0.889525  0.370440 -0.000000  0.000000
  2H   1px        0.261356 -0.000000 -0.000000  0.000000  0.076598  0.182402
  2H   1py       -0.452657  0.000000  0.000000 -0.000000 -0.132776  0.401431
  3H   1s        -0.516012  0.000000 -0.000000 -0.000000 -0.468287 -0.020334
  3H   2s         1.727012 -0.000000  0.000000  0.000000  0.497550  0.051396
  3H   3s        -0.770640  0.000000 -0.000000  0.000000  0.487954  0.487720
  3H   1pz        0.000000  0.513537 -0.889577  0.370440 -0.000000 -0.000000
  3H   1px        0.261356 -0.000000  0.000000  0.000000  0.076598 -0.182521
  3H   1py        0.452657 -0.000000  0.000000  0.000000  0.132776  0.401466
                     30        31        32        33        34        35   
                   2.49810   2.71143   2.71144   3.04184   3.35677   3.35677
                   0.00000   0.00000   0.00000   0.00000   0.00000   0.00000
                  --------  --------  --------  --------  --------  --------
  0N   1s        -0.000011 -0.000001  0.000000 -0.034133  0.000000 -0.000002
  0N   2s        -0.000038 -0.000002  0.000000 -0.078419  0.000000 -0.000004
  0N   3s         0.000256  0.000021 -0.000000 -1.002948 -0.000000  0.000020
  0N   4s        -0.000296 -0.000076  0.000000  5.811686  0.000000  0.000001
  0N   5s         0.000361  0.000054 -0.000000 -0.109197 -0.000000  0.000023
  0N   1pz       -0.000000 -0.000000 -0.000000  0.000000 -0.000000  0.000000
  0N   1px       -1.068077 -0.280113  0.000041  0.000017  0.000019 -0.306077
  0N   1py       -0.000104  0.000041  0.280042 -0.000000 -0.306087 -0.000019
  0N   2pz        0.000000  0.000000  0.000000  0.000000  0.000000 -0.000000
  0N   2px        1.448394 -2.034485  0.000294 -0.000049 -0.000176  2.805369
  0N   2py        0.000140  0.000294  2.034569  0.000000  2.805319  0.000176
  0N   3pz       -0.000000 -0.000000 -0.000000  0.000000 -0.000000 -0.000000
  0N   3px       -0.815730 -0.482406  0.000070  0.000015  0.000015 -0.234253
  0N   3py       -0.000079  0.000070  0.482365 -0.000000 -0.234270 -0.000015
  0N   1dz2      -0.000005 -0.000002  0.000000  0.144826  0.000000 -0.000009
  0N   1dxz      -0.000000  0.000000 -0.000000  0.000000 -0.000000 -0.000000
  0N   1dyz      -0.000000  0.000000 -0.000000  0.000000 -0.000000 -0.000000
  0N   1dx2y2     0.011991  0.056646 -0.000008  0.000001  0.000010 -0.153725
  0N   1dxy      -0.000001  0.000008  0.056647  0.000000  0.153731  0.000010
  0N   2dz2      -0.000002  0.000000  0.000000 -1.337921  0.000000 -0.000012
  0N   2dxz       0.000000 -0.000000  0.000000 -0.000000 -0.000000  0.000000
  0N   2dyz       0.000000 -0.000000  0.000000 -0.000000  0.000000 -0.000000
  0N   2dx2y2    -0.688638 -0.167884  0.000024  0.000029 -0.000120  1.918789
  0N   2dxy       0.000067 -0.000024 -0.167869  0.000000 -1.918764 -0.000120
  0N   1f0        0.000000 -0.000000 -0.000000 -0.000000  0.000000  0.000000
  0N   1f+1       0.071717  0.167009 -0.000024 -0.000004 -0.000025  0.393321
  0N   1f-1       0.000007 -0.000024 -0.167008  0.000000  0.393342  0.000025
  0N   1f+2      -0.000000 -0.000000 -0.000000 -0.000000  0.000000 -0.000000
  0N   1f-2       0.000000 -0.000000 -0.000000  0.000000  0.000000  0.000000
  0N   1f+3      -0.000029 -0.000002  0.000000 -0.138672 -0.000000 -0.000001
  0N   1f-3       0.000000  0.000000 -0.000002 -0.000000  0.000000  0.000000
  1H   1s        -0.023438 -0.266429  0.000039 -0.271604  0.000060 -0.956243
  1H   2s         0.059106  2.290905 -0.000332 -2.113896  0.000115 -1.839056
  1H   3s         0.563216 -0.228243  0.000033  0.271341 -0.000029  0.464835
  1H   1pz       -0.000000  0.000000 -0.000000  0.000000 -0.000000  0.000000
  1H   1px       -0.295952 -1.380991  0.000200  1.411689 -0.000077  1.224961
  1H   1py       -0.000070 -0.000102 -0.705131 -0.000000  0.463159  0.000029
  2H   1s         0.011794  0.133253  0.230727 -0.271584 -0.828127  0.478052
  2H   2s        -0.029689 -1.145734 -1.983829 -2.113918 -1.592694  0.919419
  2H   3s        -0.281626  0.114139  0.197677  0.271364  0.402584 -0.232399
  2H   1pz        0.000000 -0.000000 -0.000000  0.000000  0.000000 -0.000000
  2H   1px       -0.612178  0.183438 -0.903327 -0.705840 -0.329913  0.653589
  2H   1py       -0.182535  0.903410  0.859308  1.222572  1.034505 -0.329793
  3H   1s         0.011798  0.133186 -0.230765 -0.271584  0.828067  0.478156
  3H   2s        -0.029699 -1.145160  1.984160 -2.113918  1.592579  0.919619
  3H   3s        -0.281720  0.114082 -0.197710  0.271364 -0.402555 -0.232449
  3H   1pz        0.000000 -0.000000  0.000000  0.000000 -0.000000 -0.000000
  3H   1px       -0.612143  0.183700  0.903274 -0.705840  0.329831  0.653630
  3H   1py        0.182457 -0.903161  0.859570 -1.222572  1.034463  0.329923
                     36        37        38        39        40        41   
                   4.33430   4.33431   4.43913   4.69286   4.69290   4.72995
                   0.00000   0.00000   0.00000   0.00000   0.00000   0.00000
                  --------  --------  --------  --------  --------  --------
  0N   1s        -0.000000 -0.000000  0.000000 -0.000000  0.000000 -0.000000
  0N   2s         0.000000 -0.000000  0.000000 -0.000000  0.000000 -0.000000
  0N   3s         0.000000  0.000000 -0.000000  0.000000 -0.000000  0.000000
  0N   4s        -0.000000 -0.000000  0.000000  0.000000  0.000000 -0.000000
  0N   5s        -0.000000  0.000000 -0.000000  0.000000 -0.000000 -0.000000
  0N   1pz        0.000013 -0.000000  0.116411 -0.000002  0.000000  0.000000
  0N   1px       -0.000000 -0.000000  0.000000  0.000000 -0.000000  0.000000
  0N   1py        0.000000 -0.000000 -0.000000 -0.000000  0.000000 -0.000003
  0N   2pz       -0.000039  0.000000 -0.369385  0.000007 -0.000000 -0.000000
  0N   2px        0.000000 -0.000000 -0.000000  0.000000  0.000000 -0.000000
  0N   2py       -0.000000  0.000000  0.000000  0.000000  0.000000 -0.000011
  0N   3pz        0.000001 -0.000000 -0.053317 -0.000000 -0.000000  0.000000
  0N   3px        0.000000 -0.000000  0.000000 -0.000000  0.000000 -0.000000
  0N   3py        0.000000  0.000000 -0.000000  0.000000 -0.000000  0.000007
  0N   1dz2      -0.000000 -0.000000 -0.000000 -0.000000 -0.000000 -0.000000
  0N   1dxz      -0.514699  0.000014  0.000023 -1.067287  0.000003  0.000000
  0N   1dyz      -0.000014 -0.514706  0.000000 -0.000003 -1.067284  0.000000
  0N   1dx2y2    -0.000000  0.000000  0.000000  0.000000  0.000000  0.000000
  0N   1dxy      -0.000000  0.000000  0.000000  0.000000 -0.000000  0.000031
  0N   2dz2       0.000000  0.000000 -0.000000  0.000000  0.000000  0.000000
  0N   2dxz      -0.065754  0.000002  0.000011  0.842381 -0.000003 -0.000000
  0N   2dyz      -0.000002 -0.065744 -0.000000  0.000003  0.842392 -0.000000
  0N   2dx2y2    -0.000000  0.000000 -0.000000 -0.000000  0.000000 -0.000000
  0N   2dxy       0.000000  0.000000 -0.000000 -0.000000  0.000000 -0.000008
  0N   1f0        0.000076  0.000000  1.101035 -0.000013  0.000000  0.000000
  0N   1f+1      -0.000000 -0.000000  0.000000  0.000000 -0.000000  0.000000
  0N   1f-1       0.000000 -0.000000 -0.000000 -0.000000  0.000000  0.000005
  0N   1f+2      -0.956670  0.000027  0.000071  0.541430 -0.000002 -0.000000
  0N   1f-2       0.000027  0.956667 -0.000000 -0.000002 -0.541436  0.000000
  0N   1f+3      -0.000000 -0.000000 -0.000000  0.000000  0.000000 -0.000000
  0N   1f-3       0.000000  0.000000  0.000000 -0.000000 -0.000000 -1.214384
  1H   1s         0.000000 -0.000000 -0.000000 -0.000000 -0.000000  0.000000
  1H   2s        -0.000000  0.000000  0.000000  0.000000 -0.000000  0.000000
  1H   3s        -0.000000 -0.000000  0.000000  0.000000  0.000000 -0.000000
  1H   1pz        0.405055 -0.000011  0.340139 -0.373914  0.000001  0.000000
  1H   1px       -0.000000 -0.000000 -0.000000  0.000000  0.000000 -0.000000
  1H   1py        0.000000 -0.000000  0.000000 -0.000000 -0.000000 -0.395446
  2H   1s        -0.000000  0.000000 -0.000000  0.000000 -0.000000 -0.000001
  2H   2s         0.000000 -0.000000  0.000000 -0.000000  0.000000  0.000006
  2H   3s         0.000000 -0.000000  0.000000 -0.000000  0.000000 -0.000005
  2H   1pz       -0.202477  0.350767  0.340183  0.186949 -0.323824 -0.000000
  2H   1px       -0.000000 -0.000000  0.000000  0.000000 -0.000000  0.342468
  2H   1py       -0.000000 -0.000000 -0.000000 -0.000000  0.000000  0.197715
  3H   1s        -0.000000 -0.000000 -0.000000  0.000000  0.000000  0.000001
  3H   2s         0.000000  0.000000  0.000000 -0.000000 -0.000000 -0.000006
  3H   3s         0.000000  0.000000  0.000000 -0.000000 -0.000000  0.000005
  3H   1pz       -0.202497 -0.350756  0.340183  0.186951  0.323823 -0.000000
  3H   1px       -0.000000  0.000000  0.000000  0.000000  0.000000 -0.342468
  3H   1py        0.000000 -0.000000  0.000000  0.000000  0.000000  0.197715
                     42        43        44        45        46        47   
                   4.81744   4.92255   4.92257   5.35975   5.35976   6.03410
                   0.00000   0.00000   0.00000   0.00000   0.00000   0.00000
                  --------  --------  --------  --------  --------  --------
  0N   1s         0.004786 -0.000000  0.000000  0.000000  0.000000  0.003831
  0N   2s         0.014882 -0.000000  0.000001  0.000000  0.000001  0.044874
  0N   3s         0.036765  0.000000 -0.000008 -0.000000  0.000010 -1.773883
  0N   4s        -0.727883 -0.000000 -0.000027  0.000000 -0.000060  5.777285
  0N   5s         0.839951 -0.000000  0.000067 -0.000000  0.000020 -0.942418
  0N   1pz       -0.000000 -0.000000  0.000000 -0.000000 -0.000000 -0.000000
  0N   1px        0.000007 -0.000001 -0.159968  0.000028  0.402818  0.000013
  0N   1py       -0.000000 -0.159988  0.000001 -0.402832  0.000028 -0.000000
  0N   2pz       -0.000000  0.000000 -0.000000  0.000000  0.000000  0.000000
  0N   2px        0.000014  0.000003  0.421846 -0.000256 -3.678818 -0.000069
  0N   2py        0.000000  0.421966 -0.000003  3.678853 -0.000256  0.000000
  0N   3pz        0.000000 -0.000000 -0.000000 -0.000000  0.000000 -0.000000
  0N   3px       -0.000036  0.000004  0.453104  0.000010  0.140828  0.000011
  0N   3py        0.000000  0.453063 -0.000004 -0.140866  0.000010 -0.000000
  0N   1dz2       1.182884 -0.000000  0.000093  0.000000  0.000014 -0.243677
  0N   1dxz      -0.000000  0.000000 -0.000000  0.000000 -0.000000 -0.000000
  0N   1dyz      -0.000000 -0.000000  0.000000  0.000000 -0.000000 -0.000000
  0N   1dx2y2     0.000097 -0.000009 -1.205208 -0.000024 -0.345343  0.000009
  0N   1dxy       0.000000  1.205198 -0.000009 -0.345375  0.000024  0.000000
  0N   2dz2      -0.664070  0.000000 -0.000065  0.000000  0.000006 -1.205071
  0N   2dxz       0.000000 -0.000000  0.000000 -0.000000 -0.000000 -0.000000
  0N   2dyz       0.000000  0.000000 -0.000000  0.000000  0.000000 -0.000000
  0N   2dx2y2    -0.000076  0.000010  1.327631 -0.000123 -1.758372 -0.000028
  0N   2dxy      -0.000000 -1.327674  0.000010 -1.758381  0.000123  0.000000
  0N   1f0        0.000000 -0.000000  0.000000 -0.000000  0.000000 -0.000000
  0N   1f+1       0.000023 -0.000003 -0.358920  0.000075  1.082516  0.000017
  0N   1f-1      -0.000000 -0.358952  0.000003 -1.082495  0.000075 -0.000000
  0N   1f+2       0.000000 -0.000000  0.000000 -0.000000 -0.000000  0.000000
  0N   1f-2      -0.000000 -0.000000 -0.000000 -0.000000  0.000000 -0.000000
  0N   1f+3      -0.246842  0.000000 -0.000032  0.000000  0.000018 -1.495306
  0N   1f-3      -0.000000  0.000026 -0.000000 -0.000022  0.000000  0.000000
  1H   1s        -0.071751 -0.000003 -0.375889  0.000093  1.330505 -0.917529
  1H   2s         0.014470 -0.000004 -0.568747  0.000160  2.295234 -1.273683
  1H   3s        -0.138446 -0.000001 -0.109202 -0.000039 -0.560447  0.288007
  1H   1pz        0.000000  0.000000 -0.000000 -0.000000 -0.000000  0.000000
  1H   1px       -0.217040 -0.000000 -0.044883 -0.000105 -1.507236  0.982094
  1H   1py        0.000000  0.243989 -0.000002  0.082607 -0.000006  0.000000
  2H   1s        -0.071770 -0.325553  0.187923 -1.152284 -0.665148 -0.917555
  2H   2s         0.014449 -0.492587  0.284371 -1.987816 -1.147468 -1.273732
  2H   3s        -0.138467 -0.094531  0.054585  0.485401  0.280185  0.288027
  2H   1pz        0.000000 -0.000000  0.000000  0.000000  0.000000  0.000000
  2H   1px        0.108526  0.125047  0.171774 -0.616924 -0.438722 -0.491075
  2H   1py       -0.187998  0.027371  0.125063  1.151131  0.616788  0.850542
  3H   1s        -0.071770  0.325556  0.187918  1.152191 -0.665308 -0.917555
  3H   2s         0.014449  0.492591  0.284364  1.987656 -1.147745 -1.273732
  3H   3s        -0.138467  0.094532  0.054584 -0.485362  0.280252  0.288027
  3H   1pz        0.000000  0.000000  0.000000 -0.000000  0.000000  0.000000
  3H   1px        0.108526 -0.125044  0.171776  0.616863 -0.438808 -0.491075
  3H   1py        0.187998  0.027369 -0.125064  1.151045 -0.616948 -0.850542
                     48   
                  31.61957
                   0.00000
                  --------
  0N   1s        -1.387022
  0N   2s         1.696753
  0N   3s        -1.519597
  0N   4s         1.549007
  0N   5s        -1.099093
  0N   1pz       -0.000000
  0N   1px        0.000000
  0N   1py       -0.000000
  0N   2pz        0.000000
  0N   2px       -0.000003
  0N   2py        0.000000
  0N   3pz       -0.000000
  0N   3px        0.000001
  0N   3py       -0.000000
  0N   1dz2       0.010925
  0N   1dxz       0.000000
  0N   1dyz      -0.000000
  0N   1dx2y2    -0.000000
  0N   1dxy      -0.000000
  0N   2dz2      -0.011469
  0N   2dxz      -0.000000
  0N   2dyz       0.000000
  0N   2dx2y2    -0.000001
  0N   2dxy       0.000000
  0N   1f0       -0.000000
  0N   1f+1       0.000000
  0N   1f-1      -0.000000
  0N   1f+2       0.000000
  0N   1f-2      -0.000000
  0N   1f+3      -0.015937
  0N   1f-3      -0.000000
  1H   1s        -0.023235
  1H   2s        -0.019710
  1H   3s         0.197522
  1H   1pz       -0.000000
  1H   1px       -0.034166
  1H   1py       -0.000000
  2H   1s        -0.023237
  2H   2s        -0.019712
  2H   3s         0.197522
  2H   1pz       -0.000000
  2H   1px        0.017082
  2H   1py       -0.029587
  3H   1s        -0.023237
  3H   2s        -0.019712
  3H   3s         0.197522
  3H   1pz       -0.000000
  3H   1px        0.017082
  3H   1py        0.029587



                    ********************************
                    * MULLIKEN POPULATION ANALYSIS *
                    ********************************

-----------------------
MULLIKEN ATOMIC CHARGES
-----------------------
   0 N :   -0.731102
   1 H :    0.243691
   2 H :    0.243705
   3 H :    0.243705
Sum of atomic charges:   -0.0000000

--------------------------------
MULLIKEN REDUCED ORBITAL CHARGES
--------------------------------
  0 N s       :     3.456650  s :     3.456650
      pz      :     1.954404  p :     4.262081
      px      :     1.153836
      py      :     1.153841
      dz2     :     0.003946  d :     0.009680
      dxz     :     0.000000
      dyz     :     0.000000
      dx2y2   :     0.002866
      dxy     :     0.002868
      f0      :     0.000370  f :     0.002691
      f+1     :     0.000749
      f-1     :     0.000749
      f+2     :    -0.000000
      f-2     :     0.000000
      f+3     :     0.000822
      f-3     :     0.000000
  1 H s       :     0.717595  s :     0.717595
      pz      :     0.015076  p :     0.038713
      px      :     0.018696
      py      :     0.004941
  2 H s       :     0.717582  s :     0.717582
      pz      :     0.015075  p :     0.038713
      px      :     0.008380
      py      :     0.015258
  3 H s       :     0.717582  s :     0.717582
      pz      :     0.015075  p :     0.038713
      px      :     0.008380
      py      :     0.015258


                     *******************************
                     * LOEWDIN POPULATION ANALYSIS *
                     *******************************

----------------------
LOEWDIN ATOMIC CHARGES
----------------------
   0 N :   -0.387371
   1 H :    0.129121
   2 H :    0.129125
   3 H :    0.129125

-------------------------------
LOEWDIN REDUCED ORBITAL CHARGES
-------------------------------
  0 N s       :     3.072494  s :     3.072494
      pz      :     1.871811  p :     4.262418
      px      :     1.195303
      py      :     1.195304
      dz2     :     0.002909  d :     0.048150
      dxz     :     0.000000
      dyz     :     0.000000
      dx2y2   :     0.022620
      dxy     :     0.022621
      f0      :     0.000000  f :     0.004309
      f+1     :     0.001593
      f-1     :     0.001593
      f+2     :     0.000000
      f-2     :     0.000000
      f+3     :     0.001122
      f-3     :     0.000000
  1 H s       :     0.752831  s :     0.752831
      pz      :     0.042730  p :     0.118048
      px      :     0.058856
      py      :     0.016462
  2 H s       :     0.752829  s :     0.752829
      pz      :     0.042729  p :     0.118046
      px      :     0.027060
      py      :     0.048257
  3 H s       :     0.752829  s :     0.752829
      pz      :     0.042729  p :     0.118046
      px      :     0.027060
      py      :     0.048257


                      *****************************
                      * MAYER POPULATION ANALYSIS *
                      *****************************

  NA   - Mulliken gross atomic population
  ZA   - Total nuclear charge
  QA   - Mulliken gross atomic charge
  VA   - Mayer's total valence
  BVA  - Mayer's bonded valence
  FA   - Mayer's free valence

  ATOM       NA         ZA         QA         VA         BVA        FA
  0 N      7.7311     7.0000    -0.7311     2.8256     2.8256    -0.0000
  1 H      0.7563     1.0000     0.2437     0.9515     0.9515    -0.0000
  2 H      0.7563     1.0000     0.2437     0.9515     0.9515     0.0000
  3 H      0.7563     1.0000     0.2437     0.9515     0.9515    -0.0000

  Mayer bond orders larger than 0.100000
B(  0-N ,  1-H ) :   0.9419 B(  0-N ,  2-H ) :   0.9419 B(  0-N ,  3-H ) :   0.9419 


Now starting NBO....

 *********************************** NBO 7.0 ***********************************
             N A T U R A L   A T O M I C   O R B I T A L   A N D
          N A T U R A L   B O N D   O R B I T A L   A N A L Y S I S
 *********************** Giovanni  F. Caramori (I101916) ***********************
  (c) Copyright 1996-2020 Board of Regents of the University of Wisconsin System
      on behalf of the Theoretical Chemistry Institute.  All rights reserved.

          Cite this program [NBO 7.0.8 (11-Feb-2020)] as:

          NBO 7.0.  E. D. Glendening, J. K. Badenhoop, A. E. Reed,
          J. E. Carpenter, J. A. Bohmann, C. M. Morales, P. Karafiloglou,
          C. R. Landis, and F. Weinhold, Theoretical Chemistry Institute,
          University of Wisconsin, Madison, WI (2018)

       /NPA    / : Natural Population Analysis
       /NBO    / : Natural Bond Orbital Analysis
       /AONBO  / : Checkpoint the AO to NBO transformation
       /ARCHIVE/ : Write the archive file to lfn47

 Job title: ORCA Job: NH3‡


 NATURAL POPULATIONS:  Natural atomic orbital occupancies

  NAO Atom No lang   Type(AO)    Occupancy      Energy
 -------------------------------------------------------
   1    N  1  s      Cor( 1s)     2.00000     -16.48498
   2    N  1  s      Val( 2s)     1.38074      -1.03350
   3    N  1  s      Ryd( 4s)     0.00000       5.02514
   4    N  1  s      Ryd( 3s)     0.00000       1.71989
   5    N  1  s      Ryd( 5s)     0.00000      25.61373
   6    N  1  px     Val( 2p)     1.36568      -0.66037
   7    N  1  px     Ryd( 3p)     0.00192       0.53166
   8    N  1  px     Ryd( 4p)     0.00000       2.49641
   9    N  1  py     Val( 2p)     1.36568      -0.66037
  10    N  1  py     Ryd( 3p)     0.00192       0.53164
  11    N  1  py     Ryd( 4p)     0.00000       2.49642
  12    N  1  pz     Val( 2p)     1.99262      -0.72133
  13    N  1  pz     Ryd( 3p)     0.00526       0.29229
  14    N  1  pz     Ryd( 4p)     0.00000       1.77404
  15    N  1  dxy    Ryd( 3d)     0.00288       1.64101
  16    N  1  dxy    Ryd( 4d)     0.00000       4.38321
  17    N  1  dxz    Ryd( 3d)     0.00000       1.02355
  18    N  1  dxz    Ryd( 4d)     0.00000       4.04942
  19    N  1  dyz    Ryd( 3d)     0.00000       1.02357
  20    N  1  dyz    Ryd( 4d)     0.00000       4.04946
  21    N  1  dx2y2  Ryd( 3d)     0.00288       1.64102
  22    N  1  dx2y2  Ryd( 4d)     0.00000       4.38323
  23    N  1  dz2    Ryd( 3d)     0.00258       1.34104
  24    N  1  dz2    Ryd( 4d)     0.00000       4.21970
  25    N  1  f(0)   Ryd( 4f)     0.00051       3.91540
  26    N  1  f(c1)  Ryd( 4f)     0.00036       4.15544
  27    N  1  f(s1)  Ryd( 4f)     0.00036       4.15538
  28    N  1  f(c2)  Ryd( 4f)     0.00000       3.86045
  29    N  1  f(s2)  Ryd( 4f)     0.00000       3.86047
  30    N  1  f(c3)  Ryd( 4f)     0.00053       4.71299
  31    N  1  f(s3)  Ryd( 4f)     0.00000       4.13902

  32    H  2  s      Val( 1s)     0.62432      -0.12467
  33    H  2  s      Ryd( 3s)     0.00025       1.84956
  34    H  2  s      Ryd( 2s)     0.00000       0.50357
  35    H  2  px     Ryd( 2p)     0.00025       2.67100
  36    H  2  py     Ryd( 2p)     0.00001       2.00189
  37    H  2  pz     Ryd( 2p)     0.00054       1.89678

  38    H  3  s      Val( 1s)     0.62432      -0.12467
  39    H  3  s      Ryd( 3s)     0.00025       1.84959
  40    H  3  s      Ryd( 2s)     0.00000       0.50357
  41    H  3  px     Ryd( 2p)     0.00007       2.16916
  42    H  3  py     Ryd( 2p)     0.00019       2.50373
  43    H  3  pz     Ryd( 2p)     0.00054       1.89678

  44    H  4  s      Val( 1s)     0.62432      -0.12467
  45    H  4  s      Ryd( 3s)     0.00025       1.84959
  46    H  4  s      Ryd( 2s)     0.00000       0.50357
  47    H  4  px     Ryd( 2p)     0.00007       2.16916
  48    H  4  py     Ryd( 2p)     0.00019       2.50373
  49    H  4  pz     Ryd( 2p)     0.00054       1.89678


 Summary of Natural Population Analysis:

                                     Natural Population
             Natural    ---------------------------------------------
  Atom No    Charge        Core      Valence    Rydberg      Total
 --------------------------------------------------------------------
    N  1   -1.12392      2.00000     6.10473    0.01919     8.12392
    H  2    0.37464      0.00000     0.62432    0.00104     0.62536
    H  3    0.37464      0.00000     0.62432    0.00104     0.62536
    H  4    0.37464      0.00000     0.62432    0.00104     0.62536
 ====================================================================
 * Total *  0.00000      2.00000     7.97769    0.02232    10.00000

                                 Natural Population
 ---------------------------------------------------------
   Core                       2.00000 ( 99.9998% of    2)
   Valence                    7.97769 ( 99.7211% of    8)
   Natural Minimal Basis      9.97768 ( 99.7768% of   10)
   Natural Rydberg Basis      0.02232 (  0.2232% of   10)
 ---------------------------------------------------------

    Atom No         Natural Electron Configuration
 ----------------------------------------------------------------------------
      N  1      [core]2s( 1.38)2p( 4.72)3p( 0.01)3d( 0.01)
      H  2            1s( 0.62)
      H  3            1s( 0.62)
      H  4            1s( 0.62)


 NATURAL BOND ORBITAL ANALYSIS:

                            Occupancies       Lewis Structure    Low   High
         Max    Occ     -------------------  -----------------   occ   occ
  Cycle  Ctr   Thresh    Lewis   non-Lewis     CR  BD  nC  LP    (L)   (NL)
 ============================================================================
    1     2     1.90     9.99751   0.00249      1   3   0   1     0      0
 ----------------------------------------------------------------------------

 Structure accepted: No low occupancy Lewis orbitals

 -------------------------------------------------------
   Core                      2.00000 (100.000% of   2)
   Valence Lewis             7.99752 ( 99.969% of   8)
  ==================      =============================
   Total Lewis               9.99751 ( 99.975% of  10)
  -----------------------------------------------------
   Valence non-Lewis         0.00007 (  0.001% of  10)
   Rydberg non-Lewis         0.00242 (  0.024% of  10)
  ==================      =============================
   Total non-Lewis           0.00249 (  0.025% of  10)
 -------------------------------------------------------


     (Occupancy)   Bond orbital / Coefficients / Hybrids
 ------------------ Lewis ------------------------------------------------------
   1. (2.00000) CR ( 1) N  1            s(100.00%)
                                         1.0000  0.0000  0.0000  0.0000  0.0000
                                         0.0000  0.0000  0.0000  0.0000  0.0000
                                         0.0000  0.0000  0.0000  0.0000  0.0000
                                         0.0000  0.0000  0.0000  0.0000  0.0000
                                         0.0000  0.0000  0.0000  0.0000  0.0000
                                         0.0000  0.0000  0.0000  0.0000  0.0000
                                         0.0000
   2. (1.99839) LP ( 1) N  1            s(  0.00%)p 1.00( 99.97%)d 0.00(  0.00%)
                                                  f 0.00(  0.03%)
                                         0.0000  0.0000  0.0000  0.0000  0.0000
                                         0.0000  0.0000  0.0000  0.0000  0.0000
                                         0.0000  0.9986  0.0513  0.0000  0.0000
                                         0.0000  0.0000  0.0000  0.0000  0.0000
                                         0.0000  0.0000  0.0000  0.0000 -0.0160
                                         0.0000  0.0000  0.0000  0.0000  0.0000
                                         0.0000
   3. (1.99971) BD ( 1) N  1- H  2
               ( 68.77%)   0.8293* N  1 s( 33.26%)p 2.00( 66.51%)d 0.01(  0.20%)
                                                  f 0.00(  0.03%)
                                         0.0000  0.5767  0.0000  0.0000  0.0000
                                         0.8150 -0.0305  0.0000  0.0000  0.0000
                                         0.0000  0.0000  0.0000  0.0000  0.0000
                                         0.0000  0.0000  0.0000  0.0000  0.0000
                                         0.0374  0.0003 -0.0249  0.0004  0.0000
                                        -0.0133  0.0000  0.0000  0.0000 -0.0113
                                         0.0000
               ( 31.23%)   0.5589* H  2 s( 99.96%)p 0.00(  0.04%)
                                         0.9998  0.0002  0.0000 -0.0194  0.0000
                                         0.0000
   4. (1.99971) BD ( 1) N  1- H  3
               ( 68.77%)   0.8293* N  1 s( 33.26%)p 2.00( 66.51%)d 0.01(  0.20%)
                                                  f 0.00(  0.03%)
                                         0.0000  0.5767  0.0000  0.0000  0.0000
                                        -0.4075  0.0153  0.0000  0.7058 -0.0264
                                         0.0000  0.0000  0.0000  0.0000 -0.0324
                                        -0.0002  0.0000  0.0000  0.0000  0.0000
                                        -0.0187 -0.0001 -0.0249  0.0004  0.0000
                                         0.0066 -0.0115  0.0000  0.0000 -0.0113
                                         0.0000
               ( 31.23%)   0.5589* H  3 s( 99.96%)p 0.00(  0.04%)
                                         0.9998  0.0002  0.0000  0.0097 -0.0168
                                         0.0000
   5. (1.99971) BD ( 1) N  1- H  4
               ( 68.77%)   0.8293* N  1 s( 33.26%)p 2.00( 66.51%)d 0.01(  0.20%)
                                                  f 0.00(  0.03%)
                                         0.0000  0.5767  0.0000  0.0000  0.0000
                                        -0.4075  0.0153  0.0000 -0.7058  0.0264
                                         0.0000  0.0000  0.0000  0.0000  0.0324
                                         0.0002  0.0000  0.0000  0.0000  0.0000
                                        -0.0187 -0.0001 -0.0249  0.0004  0.0000
                                         0.0066  0.0115  0.0000  0.0000 -0.0113
                                         0.0000
               ( 31.23%)   0.5589* H  4 s( 99.96%)p 0.00(  0.04%)
                                         0.9998  0.0002  0.0000  0.0097  0.0168
                                         0.0000
 ---------------- non-Lewis ----------------------------------------------------
   6. (0.00002) BD*( 1) N  1- H  2
               ( 31.23%)   0.5589* N  1 s( 33.26%)p 2.00( 66.51%)d 0.01(  0.20%)
                                                  f 0.00(  0.03%)
               ( 68.77%)  -0.8293* H  2 s( 99.96%)p 0.00(  0.04%)
   7. (0.00002) BD*( 1) N  1- H  3
               ( 31.23%)   0.5589* N  1 s( 33.26%)p 2.00( 66.51%)d 0.01(  0.20%)
                                                  f 0.00(  0.03%)
               ( 68.77%)  -0.8293* H  3 s( 99.96%)p 0.00(  0.04%)
   8. (0.00002) BD*( 1) N  1- H  4
               ( 31.23%)   0.5589* N  1 s( 33.26%)p 2.00( 66.51%)d 0.01(  0.20%)
                                                  f 0.00(  0.03%)
               ( 68.77%)  -0.8293* H  4 s( 99.96%)p 0.00(  0.04%)
   9. (0.00000) RY ( 1) N  1            s( 78.48%)p 0.00(  0.00%)d 0.24( 18.79%)
                                                  f 0.03(  2.73%)
  10. (0.00000) RY ( 2) N  1            s(100.00%)p 0.00(  0.00%)d 0.00(  0.00%)
                                                  f 0.00(  0.00%)
  11. (0.00000) RY ( 3) N  1            s(100.00%)
  12. (0.00000) RY ( 4) N  1            s(  0.00%)p 1.00(100.00%)d 0.00(  0.00%)
                                                  f 0.00(  0.00%)
  13. (0.00000) RY ( 5) N  1            s(  0.00%)p 1.00(100.00%)d 0.00(  0.00%)
                                                  f 0.00(  0.00%)
  14. (0.00000) RY ( 6) N  1            s(  0.00%)p 1.00(100.00%)d 0.00(  0.00%)
  15. (0.00000) RY ( 7) N  1            s(  0.00%)p 1.00(100.00%)
  16. (0.00000) RY ( 8) N  1            s(  0.00%)p 1.00(100.00%)
  17. (0.00000) RY ( 9) N  1            s(  0.00%)p 1.00(100.00%)
  18. (0.00000) RY (10) N  1            s(  0.00%)p 1.00(  0.21%)d99.99( 99.79%)
  19. (0.00000) RY (11) N  1            s(  0.00%)p 0.00(  0.00%)d 1.00(100.00%)
                                                  f 0.00(  0.00%)
  20. (0.00000) RY (12) N  1            s(  0.00%)p 0.00(  0.00%)d 1.00(100.00%)
  21. (0.00000) RY (13) N  1            s(  0.00%)p 0.00(  0.00%)d 1.00(100.00%)
  22. (0.00000) RY (14) N  1            s(  0.00%)p 0.00(  0.00%)d 1.00(100.00%)
  23. (0.00000) RY (15) N  1            s(  0.00%)p 0.00(  0.00%)d 1.00(100.00%)
  24. (0.00000) RY (16) N  1            s(  0.00%)p 1.00(  0.21%)d99.99( 99.79%)
[...]
                                    Active property flags
                                    ---------------------
   (+) Dipole Moment


------------------------------------------------------------------------------
                       ORCA ELECTRIC PROPERTIES CALCULATION
------------------------------------------------------------------------------

Dipole Moment Calculation                       ... on
Quadrupole Moment Calculation                   ... off
Polarizability Calculation                      ... off
GBWName                                         ... NH3‡.gbw
Electron density file                           ... NH3‡.scfp
The origin for moment calculation is the CENTER OF MASS  = (-0.000000, -0.000000  0.000000)

-------------
DIPOLE MOMENT
-------------
                                X             Y             Z
Electronic contribution:      0.00000      -0.00000       0.00000
Nuclear contribution   :      0.00000       0.00000      -0.00000
                        -----------------------------------------
Total Dipole Moment    :      0.00000       0.00000      -0.00000
                        -----------------------------------------
Magnitude (a.u.)       :      0.00000
Magnitude (Debye)      :      0.00001



--------------------
Rotational spectrum 
--------------------
 
Rotational constants in cm-1:    11.180339    11.180303     5.590161 
Rotational constants in MHz : 335178.140696 335177.042257 167588.795738 

 Dipole components along the rotational axes: 
x,y,z [a.u.] :     0.000000     0.000002    -0.000000 
x,y,z [Debye]:     0.000000     0.000005    -0.000000 

 


           ************************************************************
           *        Program running with 12 parallel MPI-processes    *
           *              working on a common directory               *
           ************************************************************

-------------------------------------------------------------------------------
                               ORCA SCF HESSIAN
-------------------------------------------------------------------------------

Hessian of the Kohn-Sham DFT energy:
Kohn-Sham wavefunction type                      ... RKS
Hartree-Fock exchange scaling                    ...    0.167
Number of operators                              ...    1
Number of atoms                                  ...    4
Basis set dimensions                             ...   49
Integral neglect threshold                       ... 2.5e-11
Integral primitive cutoff                        ... 2.5e-12

Setting up DFT Hessian calculations              ... 
Electron density on the grid                     ... found on disk
Electron density on the final grid               ... found on disk
Building xc-kernel on the grid                   ... done   (      0.0 sec)
Building xc-kernel on the final grid             ... done   (      0.1 sec)
                                                     done   (      0.3 sec)

Nuclear repulsion Hessian                        ... done   (      0.0 sec)

----------------------------------------------
Forming right-hand sides of CP-SCF equations     ...
----------------------------------------------
One electron integral derivatives                ... done   (      0.3 sec)
Transforming the overlap derivative matrices     ... done   (      0.0 sec)
Making the Q(x) pseudodensities                  ... done   (      0.0 sec)
Adding the E*S(x)*S(y) terms to the Hessian      ... done   (      0.0 sec)
Calculating energy weighted overlap derivatives  ... done   (      0.0 sec)
Two electron integral derivatives                ... done   (      0.6 sec)
Exchange-correlation integral derivatives        ... done   (      0.6 sec)
tr(F(y)Q(x)) contribution to the Hessian         ... done   (      0.0 sec)
Response fock operator R(S(x))                   ... done   (      0.7 sec)
XC Response fock operator R(S(x))                ... done   (      0.2 sec)
tr(F(y)S(x)) contribution to the Hessian         ... done   (      0.0 sec)
Transforming and finalizing RHSs                 ... done   (      0.0 sec)

----------------------------------------------
Solving the CP-SCF equations                     ...
----------------------------------------------
     CP-SCF ITERATION   0: 
     CP-SCF ITERATION   1:      0.000096116971
     CP-SCF ITERATION   2:      0.000001166623
     CP-SCF ITERATION   3:      0.000000012299
     CP-SCF ITERATION   4:      0.000000000100

                                                 ... done   (      4.5 sec)
Forming perturbed density Hessian contributions  ... done   (      0.0 sec)
Making the perturbed densities                   ... done   (      0.0 sec)
2nd integral derivative contribs                 ... done   (      1.5 sec)
Exchange-correlation Hessian                     ... done   (      0.8 sec)
Dispersion correction in the Hessian             ... done   (      0.1 sec)
gCP correction in the Hessian                    ... done   (      0.1 sec)
Dipol derivatives                                ... done   (      0.2 sec)

Total SCF Hessian time: 0 days 0 hours 0 min 10 sec 

Writing the Hessian file to the disk             ... done


Maximum memory used throughout the entire calculation: 253.0 MB

-----------------------
VIBRATIONAL FREQUENCIES
-----------------------

Scaling factor for frequencies =  1.000000000  (already applied!)

   0:         0.00 cm**-1
   1:         0.00 cm**-1
   2:         0.00 cm**-1
   3:         0.00 cm**-1
   4:         0.00 cm**-1
   5:         0.00 cm**-1
   6:     -1264.80 cm**-1 ***imaginary mode***
   7:      1156.99 cm**-1
   8:      1157.03 cm**-1
   9:      3601.42 cm**-1
  10:      3767.36 cm**-1
  11:      3767.37 cm**-1


------------
NORMAL MODES
------------

These modes are the Cartesian displacements weighted by the diagonal matrix
M(i,i)=1/sqrt(m[i]) where m[i] is the mass of the displaced atom
Thus, these vectors are normalized but *not* orthogonal

                  0          1          2          3          4          5    
      0       0.000000   0.000000   0.000000   0.000000   0.000000   0.000000
      1       0.000000   0.000000   0.000000   0.000000   0.000000   0.000000
      2       0.000000   0.000000   0.000000   0.000000   0.000000   0.000000
      3       0.000000   0.000000   0.000000   0.000000   0.000000   0.000000
      4       0.000000   0.000000   0.000000   0.000000   0.000000   0.000000
      5       0.000000   0.000000   0.000000   0.000000   0.000000   0.000000
      6       0.000000   0.000000   0.000000   0.000000   0.000000   0.000000
      7       0.000000   0.000000   0.000000   0.000000   0.000000   0.000000
      8       0.000000   0.000000   0.000000   0.000000   0.000000   0.000000
      9       0.000000   0.000000   0.000000   0.000000   0.000000   0.000000
     10       0.000000   0.000000   0.000000   0.000000   0.000000   0.000000
     11       0.000000   0.000000   0.000000   0.000000   0.000000   0.000000
                  6          7          8          9         10         11    
      0      -0.000000  -0.000494  -0.080481   0.000004  -0.002880   0.086284
      1       0.000000  -0.080481   0.000494   0.000000   0.086284   0.002880
      2      -0.123688  -0.000000  -0.000000  -0.000000   0.000000  -0.000000
      3      -0.000000  -0.000404  -0.065614   0.577313   0.027132  -0.812911
      4      -0.000001   0.811184  -0.004982  -0.000000   0.013556   0.000451
      5       0.572917   0.000001   0.000000   0.000001  -0.000000   0.000000
      6       0.000000   0.383299   0.589653  -0.288682   0.364301  -0.181097
      7      -0.000001   0.155919   0.378720   0.500017  -0.618216   0.337597
      8       0.572917   0.000000   0.000000   0.000001  -0.000000   0.000000
      9       0.000001  -0.376028   0.594317  -0.288683  -0.351414  -0.204984
     10       0.000001   0.151254  -0.380606  -0.500017  -0.594330  -0.378068
     11       0.572917   0.000001   0.000000   0.000001  -0.000000   0.000000


-----------
IR SPECTRUM
-----------

 Mode    freq (cm**-1)   T**2         TX         TY         TZ
-------------------------------------------------------------------
   7:      1156.99   35.270969  (  0.036372   5.938825   0.000012)
   8:      1157.03   35.267701  (  5.938550  -0.036405  -0.000059)
   9:      3601.42    0.000000  ( -0.000480  -0.000147   0.000203)
  10:      3767.36   70.167933  (  0.279488  -8.371966   0.000021)
  11:      3767.37   70.173577  ( -8.372300  -0.279595   0.000141)

The first frequency considered to be a vibration is 7
The total number of vibrations considered is 5


--------------------------
THERMOCHEMISTRY AT 298.15K
--------------------------

Temperature         ... 298.15 K
Pressure            ... 1.00 atm
Total Mass          ... 17.03 AMU

Throughout the following assumptions are being made:
  (1) The electronic state is orbitally nondegenerate
  (2) There are no thermally accessible electronically excited states
  (3) Hindered rotations indicated by low frequency modes are not
      treated as such but are treated as vibrations and this may
      cause some error
  (4) All equations used are the standard statistical mechanics
      equations for an ideal gas
  (5) All vibrations are strictly harmonic

freq.    1156.99  E(vib)   ...       0.01 
freq.    1157.03  E(vib)   ...       0.01 
freq.    3601.42  E(vib)   ...       0.00 
freq.    3767.36  E(vib)   ...       0.00 
freq.    3767.37  E(vib)   ...       0.00 

------------
INNER ENERGY
------------

The inner energy is: U= E(el) + E(ZPE) + E(vib) + E(rot) + E(trans)
    E(el)   - is the total energy from the electronic structure calculation
              = E(kin-el) + E(nuc-el) + E(el-el) + E(nuc-nuc)
    E(ZPE)  - the the zero temperature vibrational energy from the frequency calculation
    E(vib)  - the the finite temperature correction to E(ZPE) due to population
              of excited vibrational states
    E(rot)  - is the rotational thermal energy
    E(trans)- is the translational thermal energy

Summary of contributions to the inner energy U:
Electronic energy                ...    -56.59316518 Eh
Zero point energy                ...      0.03064175 Eh      19.23 kcal/mol
Thermal vibrational correction   ...      0.00003980 Eh       0.02 kcal/mol
Thermal rotational correction    ...      0.00141627 Eh       0.89 kcal/mol
Thermal translational correction ...      0.00141627 Eh       0.89 kcal/mol
-----------------------------------------------------------------------
Total thermal energy                    -56.55965110 Eh


Summary of corrections to the electronic energy:
(perhaps to be used in another calculation)
Total thermal correction                  0.00287234 Eh       1.80 kcal/mol
Non-thermal (ZPE) correction              0.03064175 Eh      19.23 kcal/mol
-----------------------------------------------------------------------
Total correction                          0.03351409 Eh      21.03 kcal/mol


--------
ENTHALPY
--------

The enthalpy is H = U + kB*T
                kB is Boltzmann's constant
Total free energy                 ...    -56.55965110 Eh 
Thermal Enthalpy correction       ...      0.00094421 Eh       0.59 kcal/mol
-----------------------------------------------------------------------
Total Enthalpy                    ...    -56.55870689 Eh


Note: Rotational entropy computed according to Herzberg 
Infrared and Raman Spectra, Chapter V,1, Van Nostrand Reinhold, 1945 
Point Group:  C2v, Symmetry Number:   2  
Rotational constants in cm-1:    11.180339    11.180303     5.590161 

Vibrational entropy computed according to the QRRHO of S. Grimme
Chem.Eur.J. 2012 18 9955


-------
ENTROPY
-------

The entropy contributions are T*S = T*(S(el)+S(vib)+S(rot)+S(trans))
     S(el)   - electronic entropy
     S(vib)  - vibrational entropy
     S(rot)  - rotational entropy
     S(trans)- translational entropy
The entropies will be listed as mutliplied by the temperature to get
units of energy

Electronic entropy                ...      0.00000000 Eh      0.00 kcal/mol
Vibrational entropy               ...      0.00004693 Eh      0.03 kcal/mol
Rotational entropy                ...      0.00576448 Eh      3.62 kcal/mol
Translational entropy             ...      0.01636425 Eh     10.27 kcal/mol
-----------------------------------------------------------------------
Final entropy term                ...      0.02217566 Eh     13.92 kcal/mol

In case the symmetry of your molecule has not been determined correctly
or in case you have a reason to use a different symmetry number we print 
out the resulting rotational entropy values for sn=1,12 :
 --------------------------------------------------------
|  sn= 1 | S(rot)=       0.00641894 Eh      4.03 kcal/mol|
|  sn= 2 | S(rot)=       0.00576448 Eh      3.62 kcal/mol|
|  sn= 3 | S(rot)=       0.00538165 Eh      3.38 kcal/mol|
|  sn= 4 | S(rot)=       0.00511003 Eh      3.21 kcal/mol|
|  sn= 5 | S(rot)=       0.00489934 Eh      3.07 kcal/mol|
|  sn= 6 | S(rot)=       0.00472719 Eh      2.97 kcal/mol|
|  sn= 7 | S(rot)=       0.00458165 Eh      2.88 kcal/mol|
|  sn= 8 | S(rot)=       0.00445557 Eh      2.80 kcal/mol|
|  sn= 9 | S(rot)=       0.00434436 Eh      2.73 kcal/mol|
|  sn=10 | S(rot)=       0.00424488 Eh      2.66 kcal/mol|
|  sn=11 | S(rot)=       0.00415489 Eh      2.61 kcal/mol|
|  sn=12 | S(rot)=       0.00407274 Eh      2.56 kcal/mol|
 --------------------------------------------------------


-------------------
GIBBS FREE ENERGY
-------------------

The Gibbs free energy is G = H - T*S

Total enthalpy                    ...    -56.55870689 Eh 
Total entropy correction          ...     -0.02217566 Eh    -13.92 kcal/mol
-----------------------------------------------------------------------
Final Gibbs free energy         ...    -56.58088255 Eh

For completeness - the Gibbs free energy minus the electronic energy
G-E(el)                           ...      0.01228263 Eh      7.71 kcal/mol




------------------------------------------------------------------------------- 
                    Intrinsic Reaction Coordinate Calculation                  
------------------------------------------------------------------------------- 

System:
Nr. of atoms                        .... 4
Algorithm: SD (steepest descent step) plus correction
Settings:
Max. no of cycles        MaxIter    .... 1000
Direction                           .... Forward and backward
Initial displacement Hessian type   .... Read
Hessian Filename                    .... NH3‡.hess
Following Hessian mode              .... 0
Initial displacement type           .... Energy
  Initial displacement energy change.... 0.250 mEh
Coordinate system following type    .... Cartesian
Length of steepest descent step     .... 0.150 bohr
Do parabolic fit 
  if SD step is uphill              .... YES
Do Correction to SD step            .... YES
Scaling for length of correction
  compared to SD step               .... 0.333
Do parabolic fit to SD correction   .... YES
Only interpolate for parabolic fit  .... YES
Do update to length of
  SD step and correction            .... YES
Convergence Tolerances:
  Max. Gradient            TolMAXG  ....  1.0000e-03 Eh/bohr
  RMS Gradient             TolRMSG  ....  2.0000e-04 Eh/bohr
Storing full IRC trajectory in      .... NH3‡_IRC_Full_trj.xyz
Storing forward trajectory in       .... NH3‡_IRC_F_trj.xyz
Storing backward trajectory in      .... NH3‡_IRC_B_trj.xyz


 ...good, the file NH3‡.hess exists
Reading the hessian file           ...... done
Determining length of initial displacement:
  Requested energy change (quadratic behavior): 0.250 mEh
  Resulting scaling factor for initial displacement along normalized TS mode: 0.0827

         *************************************************************
         *                          FORWARD IRC                      *
         *************************************************************

Iteration    E(Eh)      dE(kcal/mol)  max(|G|)   RMS(G) 
Convergence thresholds                0.001000  0.000200            
    0       -56.593265   -0.062564    0.003433  0.001160
    1       -56.595746   -1.619543    0.012073  0.006935
    2       -56.597926   -2.987224    0.013488  0.004786
    3       -56.599862   -4.202286    0.006720  0.003138
    4       -56.600103   -4.353814    0.005893  0.002698
    5       -56.600185   -4.404959    0.003793  0.001841
    6       -56.600319   -4.489170    0.002162  0.000811
    7       -56.600355   -4.511921    0.000798  0.000406
    8       -56.600357   -4.512665    0.000511  0.000214
    9       -56.600357   -4.512965    0.000341  0.000136

                      ***********************HURRAY********************
                      ***            THE IRC HAS CONVERGED          ***
                      *************************************************


         *************************************************************
         *                          BACKWARD IRC                     *
         *************************************************************

Iteration    E(Eh)      dE(kcal/mol)  max(|G|)   RMS(G) 
Convergence thresholds                0.001000  0.000200            
    0       -56.593265   -0.062564    0.003433  0.001160
    1       -56.595746   -1.619317    0.012057  0.006936
    2       -56.597925   -2.986865    0.013490  0.004788
    3       -56.599857   -4.199218    0.006471  0.003073
    4       -56.600104   -4.354057    0.005893  0.002783
    5       -56.600183   -4.403599    0.003898  0.001863
    6       -56.600318   -4.488265    0.002114  0.000822
    7       -56.600356   -4.512248    0.000687  0.000301
    8       -56.600357   -4.512764    0.000436  0.000172

                      ***********************HURRAY********************
                      ***            THE IRC HAS CONVERGED          ***
                      *************************************************


---------------------------------------------------------------
                       IRC PATH SUMMARY              
---------------------------------------------------------------
All gradients are in Eh/Bohr.

Step        E(Eh)      dE(kcal/mol)  max(|G|)   RMS(G) 
   1       -56.600357   -4.512764    0.000436  0.000172
   2       -56.600356   -4.512248    0.000687  0.000301
   3       -56.600318   -4.488265    0.002114  0.000822
   4       -56.600183   -4.403599    0.003898  0.001863
   5       -56.600104   -4.354057    0.005893  0.002783
   6       -56.599857   -4.199218    0.006471  0.003073
   7       -56.597925   -2.986865    0.013490  0.004788
   8       -56.595746   -1.619317    0.012057  0.006936
   9       -56.593265   -0.062564    0.003433  0.001160
  10       -56.593165    0.000000    0.000126  0.000064 <= TS
  11       -56.593265   -0.062564    0.003433  0.001160
  12       -56.595746   -1.619543    0.012073  0.006935
  13       -56.597926   -2.987224    0.013488  0.004786
  14       -56.599862   -4.202286    0.006720  0.003138
  15       -56.600103   -4.353814    0.005893  0.002698
  16       -56.600185   -4.404959    0.003793  0.001841
  17       -56.600319   -4.489170    0.002162  0.000811
  18       -56.600355   -4.511921    0.000798  0.000406
  19       -56.600357   -4.512665    0.000511  0.000214
  20       -56.600357   -4.512965    0.000341  0.000136

Timings for individual modules:

Sum of individual times         ...      696.350 sec (=  11.606 min)
GTO integral calculation        ...      113.417 sec (=   1.890 min)  16.3 %
SCF iterations                  ...      507.979 sec (=   8.466 min)  72.9 %
SCF Gradient evaluation         ...       63.340 sec (=   1.056 min)   9.1 %
Geometry relaxation             ...        0.113 sec (=   0.002 min)   0.0 %
Analytical frequency calculation...       11.501 sec (=   0.192 min)   1.7 %
                             ****ORCA TERMINATED NORMALLY****
TOTAL RUN TIME: 0 days 0 hours 12 minutes 9 seconds 603 msec
