30
Energy (POTENTIAL) = -559.632335083 Eh
C   -1.1655   -0.7841   0.9657
C   0.0611    -0.1948   0.6563
C   0.0968    1.0902    0.1079
C   -1.0847   1.7730    -0.1329
C   -2.3083   1.1777    0.1736
C   -2.3494   -0.0991   0.7260
H   -1.1859   -1.7847   1.3794
H   1.0541    1.5328    -0.1307
H   -3.2294   1.7110    -0.0215
C   1.3041    -0.9553   0.8808
H   1.1579    -1.9633   1.3071
O   2.4211    -0.5393   0.6438
N   1.0308    -2.4692   -1.7336
H   1.9923    -2.7089   -1.5193
C   -0.4493   -0.8763   -2.9018
C   0.9873    -1.2652   -2.5746
H   1.4621    -0.4552   -2.0163
H   1.5529    -1.3778   -3.5100
H   -1.0074   -0.7712   -1.9685
H   -0.9243   -1.6904   -3.4612
H   0.6454    -3.2585   -2.2420
C   -0.5508   0.4190    -3.7053
H   -0.0651   1.2234    -3.1452
H   0.0075    0.3144    -4.6407
H   -1.0600   2.7643    -0.5651
H   -3.3000   -0.5589   0.9608
C   -1.9931   0.8137    -4.0132
H   -2.0420   1.7452    -4.5808
H   -2.4963   0.0407    -4.5992
H   -2.5648   0.9542    -3.0930
