49
Energy (POTENTIAL) = -850.030454675 Eh
C    -0.5867    -0.0720    -1.3738
C    -1.1793    1.0386     -0.7702
C    -2.5502    1.0635     -0.5497
C    -3.3315    -0.0223    -0.9350
C    -2.7442    -1.1330    -1.5408
C    -1.3765    -1.1592    -1.7589
C    0.8714     -0.0855    -1.5848
H    -0.5601    1.8748     -0.4699
H    -0.9022    -2.0138    -2.2207
H    -4.3994    -0.0064    -0.7612
N    1.6903     0.0838     1.4051
C    2.8561     0.9488     1.1887
H    1.9655     -0.7226    1.9602
C    3.9495     0.2057     0.4274
H    3.2790     1.3396     2.1257
H    2.5356     1.8181     0.6062
H    3.5376     -0.1701    -0.5130
H    4.2466     -0.6719    1.0090
O    1.4887     -1.0167    -2.0683
N    2.3793     -3.3017    0.0383
H    2.3112     -2.4167    -0.4558
H    3.0745     -3.8492    -0.4570
O    3.0825     -2.4709    2.6108
H    2.8646     -2.8353    1.7122
H    2.6501     -3.0646    3.2335
H    1.3911     0.8402     -1.2923
H    0.9747     0.5755     1.9280
H    -3.0095    1.9222     -0.0787
H    -3.3565    -1.9755    -1.8332
C    5.1784     1.0671     0.1437
H    4.8806     1.9438     -0.4403
H    5.5806     1.4489     1.0872
C    1.0723     -3.9816    -0.0001
H    0.6869     -4.0657    -1.0235
H    1.2100     -4.9993    0.3729
C    0.0522     -3.2506    0.8650
H    0.3990     -3.2482    1.9021
H    0.0096     -2.2040    0.5544
C    -1.3462    -3.8586    0.7910
H    -1.6890    -3.8462    -0.2476
H    -1.3045    -4.9111    1.0890
C    6.2718     0.3066     -0.6037
H    7.1407     0.9389     -0.7976
H    6.6111     -0.5578    -0.0277
H    5.9066     -0.0615    -1.5656
C    -2.3535    -3.1173    1.6668
H    -3.3536    -3.5469    1.5812
H    -2.0628    -3.1570    2.7195
H    -2.4176    -2.0652    1.3815
