36
Energy (POTENTIAL) = -712.593621195 Eh
C   0.0341    -0.8077    -0.8500
C   0.4696    0.5176     -0.7737
C   -0.3865   1.5524     -1.1248
C   -1.6795   1.2640     -1.5512
C   -2.1198   -0.0579    -1.6274
C   -1.2672   -1.0921    -1.2779
C   0.9621    -1.8839    -0.4836
H   1.4762    0.7292     -0.4360
H   -1.5905   -2.1226    -1.3321
H   -2.3480   2.0698     -1.8247
H   1.6916    -1.9942    2.5932
O   0.6838    -3.0738    -0.5241
H   2.0289    -4.1874    -0.0549
H   3.4970    -4.5441    -0.3515
H   3.0793    -3.7344    2.0543
H   3.1494    -3.5661    3.6789
H   1.9673    -1.5584    -0.1836
H   0.1775    -2.0059    2.2749
H   -0.0509   2.5789     -1.0654
H   -3.1266   -0.2737    -1.9588
N   3.1617    -3.0509    2.8056
C   4.4278    -2.3126    2.6658
H   4.5441    -1.6660    3.5388
H   5.2973    -2.9826    2.6467
C   4.4186    -1.4622    1.4009
H   4.2405    -2.1132    0.5383
H   3.5730    -0.7710    1.4478
C   5.7110    -0.6784    1.1839
H   5.8973    -0.0412    2.0539
H   6.5535    -1.3741    1.1260
C   5.6710    0.1809     -0.0780
H   4.8593    0.9111     -0.0307
H   6.6037    0.7305     -0.2188
H   5.5103    -0.4338    -0.9672
O   0.9137    -1.4032    2.4240
O   2.7759    -4.7359    0.2584
