30
Energy (POTENTIAL) = -559.630034705 Eh
C     2.1965     1.1709     -0.0648
C     0.8511     1.1909     0.2798
C     0.1160     0.0068     0.3443
C     0.7492     -1.1993    0.0556
C     2.0969     -1.2217    -0.2961
C     2.8242     -0.0384    -0.3556
H     0.3626     2.1325     0.4990
H     0.1857     -2.1202    0.1132
H     3.8726     -0.0562    -0.6235
N     -2.1182    0.4044     -0.4763
C     -3.5300    0.7523     -0.3133
H     -3.6005    1.4408     0.5333
H     -3.8300    1.3208     -1.1987
H     -1.9765    -0.2783    -1.2117
H     -1.3334    -1.3423    2.0752
C     -1.3654    0.0656     0.6888
H     -1.5275    0.8603     1.4247
O     -1.8256    -1.1818    1.2592
C     -4.5133    -0.4064    -0.1186
H     -4.2576    -0.9486    0.7923
H     -4.3932    -1.1132    -0.9470
H     2.7563     2.0964     -0.1057
H     2.5782     -2.1652    -0.5198
C     -5.9652    0.0669     -0.0588
H     -6.2104    0.6077     -0.9786
H     -6.0753    0.7879     0.7576
C     -6.9576    -1.0769    0.1386
H     -6.7584    -1.6146    1.0688
H     -7.9864    -0.7131    0.1793
H     -6.8937    -1.7996    -0.6786
