30
Energy (POTENTIAL) = -559.639118313 Eh
C   2.3993   1.3071    0.1528
C   1.0348   1.5536    0.0577
C   0.1268   0.4999    -0.0921
C   0.6136   -0.8134   -0.1417
C   1.9748   -1.0566   -0.0447
C   2.8721   0.0008    0.1018
H   0.6656   2.5709    0.0989
H   -0.0745  -1.6391   -0.2544
H   3.9336   -0.1959   0.1763
N   -2.2216  -0.0380   -0.3634
C   -3.6050  0.4069    -0.4292
H   -3.6814  1.5004    -0.3824
H   -4.0069  0.0857    -1.3949
H   -2.1818  -1.8649   -0.6568
H   -1.9781  -2.9075   -1.7677
C   -1.3036  0.8214    -0.1899
H   -1.5472  1.8867    -0.1040
O   -2.1982  -2.8321   -0.8327
C   -4.4359  -0.2281   0.6867
H   -4.0346  0.0919    1.6529
H   -4.3204  -1.3142   0.6409
C   -5.9167  0.1375    0.5949
H   -6.3070  -0.1883   -0.3740
H   -6.0246  1.2260    0.6209
H   3.0902   2.1317    0.2672
H   2.3412   -2.0740   -0.0826
C   -6.7464  -0.4844   1.7155
H   -7.8005  -0.2136   1.6296
H   -6.6802  -1.5748   1.6948
H   -6.3965  -0.1510   2.6955
