36
Energy (POTENTIAL) = -712.599349142 Eh
C   0.5308   -0.7831   -0.1426
C   0.0903   0.1935    0.7593
C   0.9621   0.7232    1.6973
C   2.2854   0.2872    1.7529
C   2.7307   -0.6887   0.8679
C   1.8560   -1.2240   -0.0701
C   -0.3329  -1.3492   -1.1853
H   -0.9283  0.5467    0.7132
H   2.2029   -1.9799   -0.7631
H   2.9640   0.7082    2.4829
N   -1.4854  -0.9070   -1.4836
C   -2.2427  -1.5671   -2.5374
H   -2.3284  0.5844    -1.0215
C   -3.5841  -2.0757   -2.0093
H   -1.6730  -2.3907   -2.9835
H   -2.4279  -0.8274   -3.3216
H   -4.1290  -1.2397   -1.5619
H   -3.4006  -2.7981   -1.2084
O   1.4930   2.2060    -1.5910
H   0.0893   -2.2022   -1.7271
H   1.8192   1.6102    -0.9094
O   -0.8523  3.3339    -0.5011
H   0.6787   2.5834    -1.2070
H   -1.1148  4.0960    -1.0297
O   -2.8048  1.4396    -0.8505
H   -1.5812  2.6838    -0.6075
H   -3.3800  1.2690    -0.0960
H   0.6145   1.4852    2.3816
H   3.7562   -1.0307   0.9066
C   -4.4370  -2.7197   -3.1010
H   -4.5987  -1.9950   -3.9046
H   -3.8877  -3.5551   -3.5455
C   -5.7846  -3.2140   -2.5807
H   -6.3680  -2.3923   -2.1586
H   -6.3772  -3.6677   -3.3774
H   -5.6543  -3.9634   -1.7963
