33
Energy (POTENTIAL) = -636.113822802 Eh
C    0.4143    1.6704     -1.9171
C    -0.2317   1.3735     -0.7202
C    0.2544    0.3736     0.1193
C    1.4012    -0.3284    -0.2543
C    2.0477    -0.0334    -1.4485
C    1.5560    0.9665     -2.2838
H    -1.1178   1.9268     -0.4336
H    1.7926    -1.1070    0.3862
H    2.0628    1.1963     -3.2119
N    -1.1761   -1.2401    1.2497
H    0.1603    -2.4669    1.6470
C    -2.2472   -1.4890    2.2281
H    -2.4567   -2.5615    2.2242
H    -1.8458   -1.2507    3.2142
H    -1.5328   -1.3247    0.3049
H    0.7575    -3.3380    2.7867
H    0.8514    -0.8600    2.5133
C    -0.4783   0.0429     1.4063
H    -1.1734   0.8575     1.6269
O    0.3723    -0.0145    2.5412
C    -3.5458   -0.7205    1.9833
H    -3.3448   0.3541     1.9699
H    -3.9284   -0.9810    0.9908
O    1.0090    -2.8018    2.0258
C    -4.6105   -1.0220    3.0378
H    -4.7916   -2.1009    3.0691
H    -4.2260   -0.7464    4.0244
H    0.0287    2.4521     -2.5587
H    2.9369    -0.5839    -1.7273
C    -5.9275   -0.2931    2.7809
H    -6.3508   -0.5768    1.8144
H    -6.6681   -0.5245    3.5489
H    -5.7834   0.7900     2.7740
