46
Energy (POTENTIAL) = -773.548127632 Eh
C   2.6975   2.2083    0.3520
C   1.5170   1.8910    1.0161
C   0.8931   0.6634    0.8030
C   1.4682   -0.2492   -0.0826
C   2.6458   0.0695    -0.7501
C   3.2640   1.2978    -0.5347
H   1.0755   2.6015    1.7041
H   0.9951   -1.2081   -0.2484
H   4.1825   1.5423    -1.0522
N   -1.5168  0.5618    0.6068
H   -0.9001  -2.4756   0.3874
C   -2.8485  0.3403    1.1768
H   -2.9686  -0.6809   1.5565
H   -2.9606  1.0115    2.0331
H   -1.3918  0.0105    -0.2354
N   -0.8230  -3.0457   -0.4500
H   0.3390   -1.1707   2.5281
C   -1.9285   -2.7662  -1.3709
H   -1.7660   -3.3477  -2.2832
H   -1.8646   -1.7148  -1.6660
C   -0.4172   0.3460   1.4972
H   -0.5455   1.0123   2.3559
O   -0.4426   -1.0219  1.9809
H   -0.8637   -4.0133  -0.1473
C   -3.9318   0.6291   0.1463
H   -3.7589   0.0027   -0.7343
H   -3.8433   1.6667   -0.1881
C   -3.3316   -3.0557  -0.8340
H   -3.3779   -4.1028  -0.5156
H   -3.5031   -2.4510  0.0619
C   -5.3419   0.3702   0.6736
H   -5.4120   -0.6654  1.0185
H   -5.5230   0.9986   1.5511
C   -4.4356   -2.7846  -1.8553
H   -4.2489   -3.3812  -2.7536
H   -4.3863   -1.7379  -2.1693
C   -5.8329   -3.0920  -1.3219
H   -6.6032   -2.8741  -2.0643
H   -5.9242   -4.1460  -1.0485
H   -6.0538   -2.5000  -0.4314
C   -6.4212   0.6317   -0.3742
H   -7.4187   0.4250   0.0184
H   -6.4029   1.6727   -0.7056
H   -6.2741   0.0024   -1.2545
H   3.0823    -0.6437  -1.4374
H   3.1758    3.1631   0.5282
