30
Energy (POTENTIAL) = -559.581410801 Eh
C   -1.5715   -0.6122    -0.3110
C   -0.2040   -0.4003    -0.1384
C   0.2427    0.8570     0.2634
C   -0.6621   1.8917     0.4743
C   -2.0256   1.6764     0.2929
C   -2.4793   0.4196     -0.0977
H   -1.9275   -1.5908    -0.6090
H   1.3024    1.0016     0.4237
H   -2.7305   2.4799     0.4625
C   0.7932    -1.5142    -0.3925
H   0.2891    -2.4860    -0.2824
O   2.0077    -1.4125    0.2387
N   1.3561    -1.4678    -1.8352
H   2.3151    -1.4083    -1.0630
C   -0.2781   -2.7160    -3.2635
C   1.1444    -2.6222    -2.7255
H   1.8579    -2.5359    -3.5467
H   1.4031    -3.5170    -2.1569
H   -0.5126   -1.8009    -3.8165
H   -0.9763   -2.7618    -2.4247
H   1.1341    -0.5921    -2.3030
C   -0.4853   -3.9323    -4.1648
H   0.2233    -3.8929    -4.9974
H   -0.2493   -4.8402    -3.6017
H   -3.5389   0.2423     -0.2297
H   -0.3054   2.8644     0.7883
C   -1.9096   -4.0241    -4.7076
H   -2.0403   -4.9060    -5.3373
H   -2.6366   -4.0852    -3.8942
H   -2.1594   -3.1461    -5.3080
