46
Energy (POTENTIAL) = -773.519736497 Eh
C    1.6550    1.1809    -0.0117
C    1.0622    0.8125    1.1912
C    1.7910    0.1350    2.1711
C    3.1322    -0.1431   1.9305
C    3.7336    0.2232    0.7291
C    2.9952    0.8825    -0.2486
H    0.0224    1.0630    1.3724
H    3.6898    -0.6425   2.7111
H    3.4599    1.1707    -1.1827
N    0.0198    -1.3022   3.1247
H    0.7721    -2.4500   3.0356
C    -0.9678   -1.5041   4.1974
H    -1.4364   -2.4830   4.0567
H    -0.4034   -1.5496   5.1304
H    -0.4478   -1.0338   2.2647
N    1.6812    -3.2522   3.2450
H    1.3842    -4.0182   3.8420
H    2.2183    -2.5614   3.8074
C    2.3826    -3.7345   2.0407
H    2.7222    -2.8556   1.4935
H    3.2680    -4.3058   2.3273
C    1.1537    -0.2783   3.5124
H    0.6018    0.6146    3.8789
O    1.9697    -0.8118   4.4061
C    1.4639    -4.5760   1.1665
H    1.1085    -5.4382   1.7402
H    0.5801    -3.9852   0.9075
C    -2.0504   -0.4309   4.2735
H    -1.5875   0.5496    4.4087
H    -2.5853   -0.3956   3.3180
H    4.7789    -0.0018   0.5576
H    1.0762    1.7048    -0.7620
C    2.1511    -5.0581   -0.1101
H    2.5014    -4.1910   -0.6775
H    3.0430    -5.6334   0.1555
C    -3.0451   -0.6824   5.4066
H    -2.5022   -0.7259   6.3556
H    -3.5064   -1.6657   5.2717
C    1.2376    -5.9086   -0.9891
H    0.3503    -5.3478   -1.2921
H    1.7497    -6.2357   -1.8957
H    0.8994    -6.8013   -0.4577
C    -4.1343   0.3841    5.4908
H    -4.8290   0.1809    6.3081
H    -3.7029   1.3737    5.6593
H    -4.7136   0.4301    4.5654
