49
Energy (POTENTIAL) = -850.013761948 Eh
C   -0.4631   0.2587    -0.5582
C   -1.2353   1.2664    0.0244
C   -2.5483   1.0271    0.4136
C   -3.1171   -0.2280   0.2096
C   -2.3636   -1.2308   -0.3915
C   -1.0470   -0.9860   -0.7729
C   0.9998    0.5065    -0.9764
H   -0.8125   2.2540    0.1717
H   -0.4524   -1.7596   -1.2368
H   -4.1393   -0.4177   0.5103
N   1.7478    0.9206    0.3216
C   3.1429    1.3477    0.0596
H   1.6773    -0.1218   1.1889
C   4.1586    0.2194    0.2175
H   3.3850    2.1560    0.7527
H   3.2072    1.7572    -0.9528
H   3.8417    -0.6203   -0.4005
H   4.1614    -0.1263   1.2559
O   1.6093    -0.5010   -1.5885
O   1.8977    -2.7314   -0.3959
H   1.7787    -1.8310   -0.8932
H   2.7831    -3.0362   -0.6185
H   1.7495    -1.9128   1.2434
H   1.0002    1.4400    -1.5821
H   1.2503    1.6964    0.7466
H   -3.1291   1.8179    0.8711
H   -2.8008   -2.2065   -0.5622
C   5.5708    0.6529    -0.1699
H   5.8678    1.5165    0.4341
H   5.5688    0.9914    -1.2104
C   6.5966    -0.4656   -0.0011
H   6.3390    -1.3292   -0.6191
H   7.5977    -0.1387   -0.2890
H   6.6435    -0.8044   1.0368
H   2.3799    -1.1393   2.5716
C   0.3122    -1.2565   2.6249
H   -0.4623   -1.3523   1.8661
H   0.3005    -2.1670   3.2277
C   0.0456    -0.0362   3.4943
H   0.0733    0.8601    2.8687
H   0.8476    0.0683    4.2326
C   -1.3030   -0.1140   4.2076
H   -2.0925   -0.2430   3.4619
H   -1.3266   -1.0061   4.8403
C   -1.5969   1.1224    5.0529
H   -1.6234   2.0235    4.4354
H   -2.5606   1.0385    5.5586
H   -0.8317   1.2687    5.8192
N   1.6049    -1.1408   1.9144
