49
Energy (POTENTIAL) = -849.998025454 Eh
C    -3.7194   1.0141    -0.0959
C    -4.3166   1.5715    1.0412
C    -3.5447   1.8771    2.1526
C    -2.1754   1.6245    2.1478
C    -1.5763   1.0595    1.0254
C    -2.3440   0.7538    -0.0882
C    -4.4724   0.6568    -1.2942
H    -5.3791   1.7654    1.0625
H    -1.8815   0.3258    -0.9674
H    -1.5786   1.8627    3.0184
N    -5.7316   0.8781    -1.4537
C    -6.4670   0.5113    -2.6612
H    -6.2183   1.5986    -0.8652
C    -7.7812   -0.1804   -2.3175
H    -5.8333   -0.1323   -3.2706
H    -6.6356   1.4402    -3.2098
H    -8.3470   0.4486    -1.6262
H    -7.5711   -1.1165   -1.7923
O    -3.4837   2.3151    -2.7448
H    -3.9802   0.0299    -2.0222
H    -2.9419   2.7866    -2.1046
O    -5.5704   3.5613    -2.8987
H    -4.4809   2.9549    -2.8386
H    -5.4350   4.3602    -3.4159
H    -6.4636   3.5590    -1.3146
H    -6.7320   3.7401    0.3172
C    -8.6273   -0.4567    -3.5592
H    -8.8184   0.4870     -4.0782
H    -8.0584   -1.0810    -4.2545
H    -0.5136   0.8579     1.0195
H    -4.0127   2.3082     3.0274
C    -9.9534   -1.1360    -3.2268
H    -10.5398  -1.3256    -4.1277
H    -9.7918   -2.0940    -2.7271
H    -10.5577  -0.5141    -2.5622
C    -8.4321   3.2723     -0.7364
H    -8.6328   2.7997     -1.7010
H    -8.7879   4.3079     -0.8186
C    -9.2205   2.5553     0.3533
H    -8.8642   1.5229     0.4251
H    -9.0041   3.0244     1.3197
C    -10.7288  2.5605     0.1120
H    -11.0831  3.5939     0.0514
H    -10.9379  2.1080     -0.8623
C    -11.5064  1.8168     1.1955
H    -11.1933  0.7715     1.2552
H    -11.3423  2.2672     2.1775
H    -12.5804  1.8306     0.9993
N    -6.9865   3.1967     -0.4998
