33
Energy (POTENTIAL) = -636.067008258 Eh
C    -3.5494   1.0050    -0.3293
C    -2.5620   0.0325    -0.5329
C    -1.2188   0.3681    -0.4495
C    -0.8489   1.6801    -0.1717
C    -1.8247   2.6566    0.0221
C    -3.1675   2.3244    -0.0551
C    -4.9304   0.5624    -0.4164
H    -2.8595   -0.9823   -0.7610
H    -3.9097   3.0989    0.0848
H    0.1982    1.9456    -0.1111
N    -5.9548   1.2577    -0.0463
C    -7.3415   0.8001    -0.1893
H    -5.8364   2.2158    0.2609
C    -8.1260   0.8373    1.1206
H    -7.3077   -0.1990   -0.6212
H    -7.8097   1.4633    -0.9190
H    -9.1815   0.7743    0.8462
H    -7.9919   1.8146    1.5963
O    -6.0615   -1.6461   -1.9859
H    -5.1296   -0.4680   -0.7016
H    -5.7218   -2.4170   -2.4490
O    -5.2098   0.4407    -2.8901
H    -5.6156   -0.6089   -2.5541
H    -4.2887   0.3042    -3.1324
C    -7.8148   -0.2797   2.1236
H    -8.5825   -0.2493   2.9012
H    -7.9244   -1.2458   1.6227
H    -1.5348   3.6776    0.2297
H    -0.4625   -0.3892   -0.6046
C    -6.4409   -0.2039   2.7919
H    -5.6303   -0.4102   2.0945
H    -6.2662   0.7852    3.2226
H    -6.3666   -0.9341   3.6001
