3
Energy (POTENTIAL) = -76.4666514750 Eh
O   0.8096   0.1311   0.0000
H   1.7728   0.1775   0.0000
H   0.5317   1.0546   0.0000
